
  ___ ___ ___ _ _ _  
 |   |   |_  | | | | 
 | | | | | . | | | | 
 |__ |  _|___|_____|  1.5.1
 |___|_|             

User:   siva@s74n52.grendel.cscaa.dk
Date:   Tue Jul  2 15:02:28 2019
Arch:   x86_64
Pid:    98660
Python: 3.6.3
gpaw:   /home/siva/gpaw-1.5.1/gpaw
_gpaw:  /home/siva/gpaw-1.5.1/build/bin.linux-x86_64-3.6/gpaw-python
ase:    /home/siva/env1.5/lib/python3.6/site-packages/ase (version 3.17.0)
numpy:  /home/siva/env1.5/lib/python3.6/site-packages/numpy (version 1.16.0)
scipy:  /home/siva/env1.5/lib/python3.6/site-packages/scipy (version 1.2.0)
units:  Angstrom and eV
cores:  20
Extra parameters: {'blacs': True}

Input parameters:
  basis: dzp
  kpts: [2 2 1]
  mode: {ecut: 500.0,
         gammacentered: False,
         name: pw}
  setups: {Ti: :d,3.5}
  xc: PBE

System changes: positions, numbers, cell, pbc, initial_charges, initial_magmoms 

Initialize ...

O-setup:
  name: Oxygen
  id: 32ecd46bf208036f09c70b0ec9a88b78
  Z: 8
  valence: 6
  core: 2
  charge: 0.0
  file: /home/wido/sw/gpaw/basis/gpaw-setups-0.9.20000/O.PBE.gz
  cutoffs: 0.67(comp), 1.17(filt), 0.83(core), lmax=2
  valence states:
                energy  radius
    2s(2.00)   -23.961   0.688
    2p(4.00)    -9.029   0.598
    *s           3.251   0.688
    *p          18.182   0.598
    *d           0.000   0.619

  LCAO basis set for O:
    Name: dzp
    File: /home/wido/sw/gpaw/basis/gpaw-setups-0.9.20000/O.dzp.basis.gz
    Number of radial functions: 5
    Number of spherical harmonics: 13
      l=0, rc=4.3438 Bohr: 2s-sz confined orbital
      l=1, rc=5.3906 Bohr: 2p-sz confined orbital
      l=0, rc=2.2969 Bohr: 2s-dz split-valence wave
      l=1, rc=2.8906 Bohr: 2p-dz split-valence wave
      l=2, rc=5.3906 Bohr: d-type Gaussian polarization

Ti-setup:
  name: Titanium
  id: d282db07e62ae71292040bf25b25ccdd
  Z: 22
  valence: 12
  core: 10
  charge: 0.0
  Hubbard U: 3.500000 eV (l=2, scale=True)
  file: /home/wido/sw/gpaw/basis/gpaw-setups-0.9.20000/Ti.PBE.gz
  cutoffs: 1.22(comp), 2.23(filt), 1.02(core), lmax=2
  valence states:
                energy  radius
    3s(2.00)   -62.623   1.270
    4s(2.00)    -4.466   1.270
    3p(6.00)   -38.862   1.058
    4p(0.00)    -1.466   1.058
    3d(2.00)    -4.258   1.058
    *d          22.953   1.058

  LCAO basis set for Ti:
    Name: dzp
    File: /home/wido/sw/gpaw/basis/gpaw-setups-0.9.20000/Ti.dzp.basis.gz
    Number of radial functions: 11
    Number of spherical harmonics: 29
      l=0, rc=3.4375 Bohr: 3s-sz confined orbital
      l=0, rc=9.9062 Bohr: 4s-sz confined orbital
      l=1, rc=3.8906 Bohr: 3p-sz confined orbital
      l=1, rc=13.1094 Bohr: 4p-sz confined orbital
      l=2, rc=6.6250 Bohr: 3d-sz confined orbital
      l=0, rc=2.1406 Bohr: 3s-dz split-valence wave
      l=0, rc=6.0156 Bohr: 4s-dz split-valence wave
      l=1, rc=2.3125 Bohr: 3p-dz split-valence wave
      l=1, rc=8.1094 Bohr: 4p-dz split-valence wave
      l=2, rc=3.8594 Bohr: 3d-dz split-valence wave
      l=1, rc=9.9062 Bohr: p-type Gaussian polarization

V-setup:
  name: Vanadium
  id: a8354638d66c808f8c867a10b63fd727
  Z: 23
  valence: 13
  core: 10
  charge: 0.0
  file: /home/wido/sw/gpaw/basis/gpaw-setups-0.9.20000/V.PBE.gz
  cutoffs: 1.19(comp), 2.14(filt), 0.96(core), lmax=2
  valence states:
                energy  radius
    3s(2.00)   -70.222   1.254
    4s(2.00)    -4.702   1.254
    3p(6.00)   -44.043   1.281
    4p(0.00)    -1.444   1.281
    3d(3.00)    -5.164   1.169
    *d          22.047   1.169

  LCAO basis set for V:
    Name: dzp
    File: /home/wido/sw/gpaw/basis/gpaw-setups-0.9.20000/V.dzp.basis.gz
    Number of radial functions: 11
    Number of spherical harmonics: 29
      l=0, rc=3.2656 Bohr: 3s-sz confined orbital
      l=0, rc=9.5312 Bohr: 4s-sz confined orbital
      l=1, rc=3.6719 Bohr: 3p-sz confined orbital
      l=1, rc=12.8750 Bohr: 4p-sz confined orbital
      l=2, rc=6.0938 Bohr: 3d-sz confined orbital
      l=0, rc=2.0625 Bohr: 3s-dz split-valence wave
      l=0, rc=5.7656 Bohr: 4s-dz split-valence wave
      l=1, rc=2.4062 Bohr: 3p-dz split-valence wave
      l=1, rc=7.8906 Bohr: 4p-dz split-valence wave
      l=2, rc=3.6562 Bohr: 3d-dz split-valence wave
      l=1, rc=9.5312 Bohr: p-type Gaussian polarization

H-setup:
  name: Hydrogen
  id: d65de229564ff8ea4db303e23b6d1ecf
  Z: 1
  valence: 1
  core: 0
  charge: 0.0
  file: /home/wido/sw/gpaw/basis/gpaw-setups-0.9.20000/H.PBE.gz
  cutoffs: 0.48(comp), 0.85(filt), 0.53(core), lmax=2
  valence states:
                energy  radius
    1s(1.00)    -6.494   0.476
    *s          20.717   0.476
    *p           0.000   0.476

  LCAO basis set for H:
    Name: dzp
    File: /home/wido/sw/gpaw/basis/gpaw-setups-0.9.20000/H.dzp.basis.gz
    Number of radial functions: 3
    Number of spherical harmonics: 5
      l=0, rc=6.4219 Bohr: 1s-sz confined orbital
      l=0, rc=3.6094 Bohr: 1s-dz split-valence wave
      l=1, rc=6.4219 Bohr: p-type Gaussian polarization

Reference energy: -1044876.112776

Spin-paired calculation

Occupation numbers:
  Fermi-Dirac: width=0.1000 eV

Convergence criteria:
  Maximum total energy change: 0.0005 eV / electron
  Maximum integral of absolute density change: 0.0001 electrons
  Maximum integral of absolute eigenstate change: 4e-08 eV^2
  Maximum number of iterations: 333

Symmetries present (total): 1

  ( 1  0  0)
  ( 0  1  0)
  ( 0  0  1)

4 k-points: 2 x 2 x 1 Monkhorst-Pack grid
2 k-points in the irreducible part of the Brillouin zone
       k-points in crystal coordinates                weights
   0:     0.25000000   -0.25000000    0.00000000          2/4
   1:     0.25000000    0.25000000    0.00000000          2/4

Wave functions: Plane wave expansion
  Cutoff energy: 500.000 eV
  Number of coefficients (min, max): 70729, 70729
  Pulay-stress correction: 0.000000 eV/Ang^3 (de/decut=0.000000)
  Using FFTW library
  ScaLapack parameters: grid=1x1, blocksize=None
  Wavefunction extrapolation:
    Improved wavefunction reuse through dual PAW basis 

Eigensolver
   Davidson(niter=2, smin=None, normalize=True) 

Densities:
  Coarse grid: 54*60*125 grid
  Fine grid: 108*120*250 grid
  Total Charge: 0.000000 

Density mixing:
  Method: separate
  Backend: pulay
  Linear mixing parameter: 0.05
  Mixing with 5 old densities
  Damping of long wave oscillations: 50 

Hamiltonian:
  XC and Coulomb potentials evaluated on a 108*120*250 grid
  Using the PBE Exchange-Correlation functional
 

XC parameters: PBE with 2 nearest neighbor stencil

Memory estimate:
  Process memory now: 269.15 MiB
  Calculator: 1306.64 MiB
    Density: 24.83 MiB
      Arrays: 8.03 MiB
      Localized functions: 13.71 MiB
      Mixer: 3.09 MiB
    Hamiltonian: 5.65 MiB
      Arrays: 5.25 MiB
      XC: 0.00 MiB
      Poisson: 0.00 MiB
      vbar: 0.40 MiB
    Wavefunctions: 1276.16 MiB
      Arrays psit_nG: 602.22 MiB
      Eigensolver: 655.14 MiB
      Projections: 1.44 MiB
      Projectors: 1.56 MiB
      PW-descriptor: 15.80 MiB

Total number of cores used: 20
Parallelization over k-points: 2
Domain decomposition: 1 x 2 x 5

Number of atoms: 117
Number of atomic orbitals: 2113
Number of bands in calculation: 558
Bands to converge: occupied states only
Number of valence electrons: 922

... initialized

Initializing position-dependent things.

Density initialized from atomic densities
Creating initial wave functions:
  558 bands from LCAO basis set

                                               
                                               
                                               
                                               
                                               
                                               
                       O                       
                    O          H  O            
             O   H   V        OTi              
                  Oi    O      OV   O          
          O      O    O      Oi     Ti         
               Ti     TO     O   O             
               O    O      Tii     O           
         O   OTi    Ti     O   O Ti            
             Ti   OOOO  O   O  Tii             
             OO   Ti      Ti  O  O   O         
           OTi    Ti     O                     
            O   O     OTi     Oi               
          Ti    TOO    OO   O      OTi         
          O   O O    OTi    Tii     O          
              TiO     O   OO    O Ti           
             O     OTi     Oi     O            
             Oi     O    O     OTi             
           O      Ti    Ti                     
           Ti          O     O O               
               O                               
                                               
                                               
                                               
                                               

Positions:
   0 O      8.476572    1.911173    6.000000    ( 0.0000,  0.0000,  0.0000)
   1 O      3.305699    0.000000    6.000000    ( 0.0000,  0.0000,  0.0000)
   2 Ti     1.412752    0.000000    6.752957    ( 0.0000,  0.0000,  0.0000)
   3 Ti     6.583625    1.911173    6.752957    ( 0.0000,  0.0000,  0.0000)
   4 Ti     9.522250    1.911173    7.640878    ( 0.0000,  0.0000,  0.0000)
   5 Ti     4.351376    0.000000    7.640878    ( 0.0000,  0.0000,  0.0000)
   6 O      9.861551    0.000000    7.505914    ( 0.0000,  0.0000,  0.0000)
   7 O      4.690678    1.911173    7.505914    ( 0.0000,  0.0000,  0.0000)
   8 O      7.629303    1.911173    8.393834    ( 0.0000,  0.0000,  0.0000)
   9 O      2.458430    0.000000    8.393834    ( 0.0000,  0.0000,  0.0000)
  10 O      6.244323    0.000000    6.887921    ( 0.0000,  0.0000,  0.0000)
  11 O      1.073450    1.911173    6.887921    ( 0.0000,  0.0000,  0.0000)
  12 O      9.806026    1.908532    9.582328    ( 0.0000,  0.0000,  0.0000)
  13 O      4.634004   -0.000211    9.582448    ( 0.0000,  0.0000,  0.0000)
  14 Ti     2.745657    0.020380   10.389867    ( 0.0000,  0.0000,  0.0000)
  15 Ti     7.917978    1.882135   10.391380    ( 0.0000,  0.0000,  0.0000)
  16 Ti     0.484123    1.936933   11.126853    ( 0.0000,  0.0000,  0.0000)
  17 Ti     5.652318   11.438883   11.128085    ( 0.0000,  0.0000,  0.0000)
  18 O      0.908550   -0.008431   11.093232    ( 0.0000,  0.0000,  0.0000)
  19 O      6.080440    1.914624   11.093610    ( 0.0000,  0.0000,  0.0000)
  20 O      9.029044    1.880858   11.946728    ( 0.0000,  0.0000,  0.0000)
  21 O      3.858667    0.022627   11.946590    ( 0.0000,  0.0000,  0.0000)
  22 O      7.550085   -0.010477   10.446063    ( 0.0000,  0.0000,  0.0000)
  23 O      2.377922    1.917498   10.446481    ( 0.0000,  0.0000,  0.0000)
  24 O      0.935903    1.918008   13.086318    ( 0.0000,  0.0000,  0.0000)
  25 O      6.105780   -0.018148   13.086595    ( 0.0000,  0.0000,  0.0000)
  26 Ti     4.198660    0.054006   14.012549    ( 0.0000,  0.0000,  0.0000)
  27 Ti     9.371872    1.848116   14.010497    ( 0.0000,  0.0000,  0.0000)
  28 Ti     1.824079    1.924908   14.628256    ( 0.0000,  0.0000,  0.0000)
  29 Ti     6.994164   11.447140   14.627466    ( 0.0000,  0.0000,  0.0000)
  30 O      2.382215    0.031054   14.831208    ( 0.0000,  0.0000,  0.0000)
  31 O      7.550967    1.869800   14.824799    ( 0.0000,  0.0000,  0.0000)
  32 O      0.194160    1.857916   15.452964    ( 0.0000,  0.0000,  0.0000)
  33 O      5.363482    0.046114   15.453806    ( 0.0000,  0.0000,  0.0000)
  34 O      9.001773   11.426701   13.967204    ( 0.0000,  0.0000,  0.0000)
  35 O      3.828767    1.944598   13.964734    ( 0.0000,  0.0000,  0.0000)
  36 O      8.476572    5.733518    6.000000    ( 0.0000,  0.0000,  0.0000)
  37 O      3.305699    3.822345    6.000000    ( 0.0000,  0.0000,  0.0000)
  38 Ti     1.412752    3.822345    6.752957    ( 0.0000,  0.0000,  0.0000)
  39 Ti     6.583625    5.733518    6.752957    ( 0.0000,  0.0000,  0.0000)
  40 Ti     9.522250    5.733518    7.640878    ( 0.0000,  0.0000,  0.0000)
  41 Ti     4.351376    3.822345    7.640878    ( 0.0000,  0.0000,  0.0000)
  42 O      9.861551    3.822345    7.505914    ( 0.0000,  0.0000,  0.0000)
  43 O      4.690678    5.733518    7.505914    ( 0.0000,  0.0000,  0.0000)
  44 O      7.629303    5.733518    8.393834    ( 0.0000,  0.0000,  0.0000)
  45 O      2.458430    3.822345    8.393834    ( 0.0000,  0.0000,  0.0000)
  46 O      6.244323    3.822345    6.887921    ( 0.0000,  0.0000,  0.0000)
  47 O      1.073450    5.733518    6.887921    ( 0.0000,  0.0000,  0.0000)
  48 O      9.825970    5.730618    9.599064    ( 0.0000,  0.0000,  0.0000)
  49 O      4.634534    3.829447    9.610847    ( 0.0000,  0.0000,  0.0000)
  50 Ti     2.829882    3.826792   10.358293    ( 0.0000,  0.0000,  0.0000)
  51 Ti     7.904287    5.680164   10.330688    ( 0.0000,  0.0000,  0.0000)
  52 Ti     0.541748    5.709998   11.151527    ( 0.0000,  0.0000,  0.0000)
  53 Ti     5.665614    3.815999   11.287671    ( 0.0000,  0.0000,  0.0000)
  54 O      0.887385    3.824602   11.094629    ( 0.0000,  0.0000,  0.0000)
  55 O      6.088796    5.727601   11.106122    ( 0.0000,  0.0000,  0.0000)
  56 O      9.015375    5.750920   11.933928    ( 0.0000,  0.0000,  0.0000)
  57 O      7.560340    3.823586   10.457737    ( 0.0000,  0.0000,  0.0000)
  58 O      2.370983    5.727530   10.452638    ( 0.0000,  0.0000,  0.0000)
  59 O      0.869188    5.669253   13.236736    ( 0.0000,  0.0000,  0.0000)
  60 O      6.043474    3.806825   13.218181    ( 0.0000,  0.0000,  0.0000)
  61 Ti     4.319753    3.800578   14.038611    ( 0.0000,  0.0000,  0.0000)
  62 Ti     9.243619    5.588517   13.802506    ( 0.0000,  0.0000,  0.0000)
  63 Ti     1.964623    5.638231   14.718715    ( 0.0000,  0.0000,  0.0000)
  64 Ti     7.072695    3.779377   15.046632    ( 0.0000,  0.0000,  0.0000)
  65 O      2.321773    3.785835   15.001886    ( 0.0000,  0.0000,  0.0000)
  66 O      7.510812    5.719793   14.615759    ( 0.0000,  0.0000,  0.0000)
  67 O     -0.142966    5.728532   15.625110    ( 0.0000,  0.0000,  0.0000)
  68 O      5.350431    3.814823   15.603967    ( 0.0000,  0.0000,  0.0000)
  69 O      9.023930    3.774628   13.941861    ( 0.0000,  0.0000,  0.0000)
  70 O      3.683186    5.659578   13.966929    ( 0.0000,  0.0000,  0.0000)
  71 O      8.476572    9.555862    6.000000    ( 0.0000,  0.0000,  0.0000)
  72 O      3.305699    7.644690    6.000000    ( 0.0000,  0.0000,  0.0000)
  73 Ti     1.412752    7.644690    6.752957    ( 0.0000,  0.0000,  0.0000)
  74 Ti     6.583625    9.555862    6.752957    ( 0.0000,  0.0000,  0.0000)
  75 Ti     9.522250    9.555862    7.640878    ( 0.0000,  0.0000,  0.0000)
  76 Ti     4.351376    7.644690    7.640878    ( 0.0000,  0.0000,  0.0000)
  77 O      9.861551    7.644690    7.505914    ( 0.0000,  0.0000,  0.0000)
  78 O      4.690678    9.555862    7.505914    ( 0.0000,  0.0000,  0.0000)
  79 O      7.629303    9.555862    8.393834    ( 0.0000,  0.0000,  0.0000)
  80 O      2.458430    7.644690    8.393834    ( 0.0000,  0.0000,  0.0000)
  81 O      6.244323    7.644690    6.887921    ( 0.0000,  0.0000,  0.0000)
  82 O      1.073450    9.555862    6.887921    ( 0.0000,  0.0000,  0.0000)
  83 O      9.804975    9.545171    9.610776    ( 0.0000,  0.0000,  0.0000)
  84 O      4.653116    7.644436    9.598922    ( 0.0000,  0.0000,  0.0000)
  85 Ti     2.731941    7.694095   10.327092    ( 0.0000,  0.0000,  0.0000)
  86 Ti     8.005693    9.548647   10.356814    ( 0.0000,  0.0000,  0.0000)
  87 Ti     0.493490    9.560271   11.296328    ( 0.0000,  0.0000,  0.0000)
  88 Ti     5.716661    7.670078   11.150149    ( 0.0000,  0.0000,  0.0000)
  89 O      0.915826    7.647825   11.107048    ( 0.0000,  0.0000,  0.0000)
  90 O      6.057227    9.551324   11.092362    ( 0.0000,  0.0000,  0.0000)
  91 O      9.025066    9.557083   11.965148    ( 0.0000,  0.0000,  0.0000)
  92 O      3.841727    7.626285   11.931664    ( 0.0000,  0.0000,  0.0000)
  93 O      7.542850    7.649635   10.452601    ( 0.0000,  0.0000,  0.0000)
  94 O      2.388611    9.551538   10.456978    ( 0.0000,  0.0000,  0.0000)
  95 O      0.876030    9.566416   13.224385    ( 0.0000,  0.0000,  0.0000)
  96 O      6.035862    7.704275   13.228192    ( 0.0000,  0.0000,  0.0000)
  97 Ti     4.069113    7.781643   13.792245    ( 0.0000,  0.0000,  0.0000)
  98 Ti     9.500280    9.570466   14.045240    ( 0.0000,  0.0000,  0.0000)
  99 Ti     1.914886    9.580354   15.068943    ( 0.0000,  0.0000,  0.0000)
 100 Ti     7.130516    7.745049   14.715136    ( 0.0000,  0.0000,  0.0000)
 101 O      2.332603    7.649482   14.607596    ( 0.0000,  0.0000,  0.0000)
 102 O      7.492531    9.590168   14.998876    ( 0.0000,  0.0000,  0.0000)
 103 O      0.188872    9.556231   15.612815    ( 0.0000,  0.0000,  0.0000)
 104 O      5.060935    7.655389   15.605447    ( 0.0000,  0.0000,  0.0000)
 105 O      8.854702    7.717374   13.968110    ( 0.0000,  0.0000,  0.0000)
 106 O      3.849657    9.595538   13.944337    ( 0.0000,  0.0000,  0.0000)
 107 V      3.785324    7.716398   16.858478    ( 0.0000,  0.0000,  0.0000)
 108 V      8.870016    5.653401   16.835480    ( 0.0000,  0.0000,  0.0000)
 109 O      7.764902    7.200149   16.720993    ( 0.0000,  0.0000,  0.0000)
 110 O      2.819104    9.191042   16.710098    ( 0.0000,  0.0000,  0.0000)
 111 O      9.509589    5.727573   18.287799    ( 0.0000,  0.0000,  0.0000)
 112 O      7.972908    4.138743   16.694904    ( 0.0000,  0.0000,  0.0000)
 113 O      4.503051    7.668041   18.278244    ( 0.0000,  0.0000,  0.0000)
 114 O      2.717445    6.157835   16.728731    ( 0.0000,  0.0000,  0.0000)
 115 H      2.701178    5.528040   17.485482    ( 0.0000,  0.0000,  0.0000)
 116 H      7.750360    7.824362   17.482065    ( 0.0000,  0.0000,  0.0000)

Unit cell:
           periodic     x           y           z      points  spacing
  1. axis:    yes   10.341746    0.000000    0.000000    54     0.1915
  2. axis:    yes   -0.000000   11.467000    0.000000    60     0.1911
  3. axis:    no     0.000000    0.000000   23.497201   125     0.1880

  Lengths:  10.341746  11.467000  23.497201
  Angles:   90.000000  90.000000  90.000000

Effective grid spacing dv^(1/3) = 0.1902

                     log10-error:    total        iterations:
           time      wfs    density  energy       fermi  poisson
iter:   1  15:04:47  -0.02   +inf  -1040.996644    4             
iter:   2  15:05:25  -0.96  -0.93  -988.045766    4             
iter:   3  15:06:03  +0.30  -0.98  -868.280288    35            
iter:   4  15:06:41  -0.12  -1.26  -871.359249    4             
iter:   5  15:07:19  -1.38  -1.34  -880.118259    29            
iter:   6  15:07:58  -0.67  -1.32  -873.386484    5             
iter:   7  15:08:36  -0.76  -1.54  -876.796021    4             
iter:   8  15:09:14  -1.79  -1.85  -874.934288    5             
iter:   9  15:09:52  -1.24  -2.05  -877.255838    4             
iter:  10  15:10:30  -1.69  -1.99  -874.517016    5             
iter:  11  15:11:08  -2.20  -2.31  -874.621572    3             
iter:  12  15:11:46  -3.11  -2.34  -874.657231    3             
iter:  13  15:12:24  -2.94  -2.47  -874.639398    3             
iter:  14  15:13:03  -3.26  -2.65  -874.687590    3             
iter:  15  15:13:41  -3.71  -2.92  -874.694269    2             
iter:  16  15:14:19  -3.99  -2.98  -874.699652    2             
iter:  17  15:14:57  -4.50  -3.04  -874.696030    2             
iter:  18  15:15:35  -3.79  -3.08  -874.689303    3             
iter:  19  15:16:13  -4.27  -3.19  -874.693106    2             
iter:  20  15:16:51  -4.60  -3.37  -874.690675    2             
iter:  21  15:17:29  -4.76  -3.43  -874.692355    2             
iter:  22  15:18:07  -5.11  -3.74  -874.693263    2             
iter:  23  15:18:46  -6.03  -3.82  -874.693235    2             
iter:  24  15:19:24  -6.03  -3.85  -874.693308    2             
iter:  25  15:20:02  -6.16  -3.94  -874.693615    2             
iter:  26  15:20:40  -5.89  -4.03  -874.693820    2             
iter:  27  15:21:18  -6.25  -4.20  -874.693851    2             
iter:  28  15:21:56  -6.45  -4.25  -874.693919    2             
iter:  29  15:22:34  -6.34  -4.42  -874.694148    2             
iter:  30  15:23:12  -6.89  -4.41  -874.694137    2             
iter:  31  15:23:50  -6.19  -4.57  -874.694077    2             
iter:  32  15:24:28  -7.15  -4.78  -874.694108    2             
iter:  33  15:25:07  -7.82  -4.88  -874.694127    2             

Converged after 33 iterations.

Dipole moment: (8.073410, -4.108816, -0.738548) |e|*Ang

Energy contributions relative to reference atoms: (reference = -1044876.112776)

Kinetic:       +599.502516
Potential:     -808.451663
External:        +0.000000
XC:            -676.270500
Entropy (-ST):   -0.051310
Local:          +10.551175
--------------------------
Free energy:   -874.719782
Extrapolated:  -874.694127

Fermi level: 0.61121

Showing all kpts
 Kpt  Band  Eigenvalues  Occupancy
  0   459     -1.39372    1.00000
  0   460      0.23641    0.97698
  0   461      1.06550    0.01053
  0   462      1.12617    0.00577

  1   459     -1.39394    1.00000
  1   460      0.23653    0.97695
  1   461      1.06504    0.01058
  1   462      1.12535    0.00582



Forces in eV/Ang:
  0 O    -1.98655    0.00553    1.31699
  1 O    -1.99259   -0.00946    1.32199
  2 Ti    3.78056    0.06647    1.69372
  3 Ti    3.81289   -0.04878    1.71938
  4 Ti   -1.96810   -0.01577   -1.89328
  5 Ti   -1.93104    0.04177   -1.88217
  6 O     0.92297   -0.04495   -0.19112
  7 O     0.91127    0.03391   -0.18254
  8 O    -0.60268   -0.00097   -0.47005
  9 O    -0.61132    0.00264   -0.42112
 10 O    -0.30064   -0.03866   -0.92716
 11 O    -0.29038    0.01227   -0.92587
 12 O    -0.24529   -0.00687   -0.12005
 13 O    -0.33197    0.00215   -0.16349
 14 Ti    0.13092   -0.25179   -0.42588
 15 Ti   -0.01049    0.27763   -0.40928
 16 Ti    0.13776   -0.21285    0.42059
 17 Ti    0.40274    0.18971    0.41140
 18 O     0.04771    0.15152    0.01550
 19 O    -0.09441   -0.22336    0.07204
 20 O     0.10583   -0.01558    0.38898
 21 O    -0.00584    0.00415    0.39140
 22 O    -0.02809   -0.12583    0.06121
 23 O     0.25225    0.31932    0.34954
 24 O    -0.35009    0.03270   -0.36887
 25 O    -0.42836   -0.00260   -0.35838
 26 Ti   -0.01006   -0.32423   -0.57384
 27 Ti   -0.10385    0.16595   -0.56262
 28 Ti    0.71943   -0.10710    0.52692
 29 Ti    0.87460    0.03831    0.41931
 30 O     0.00139    0.13475    0.28934
 31 O    -0.00905   -0.11024    0.26374
 32 O    -0.10110   -0.03225    0.47778
 33 O    -0.18346    0.05243    0.46688
 34 O    -0.38222   -0.00332    0.24850
 35 O    -0.43324    0.29671   -0.16555
 36 O    -2.01505    0.00847    1.37915
 37 O    -1.90850    0.01553    1.26789
 38 Ti    3.82520   -0.09289    1.72833
 39 Ti    3.59005   -0.05396    1.47305
 40 Ti   -1.62177   -0.04895   -1.71018
 41 Ti   -2.02569   -0.08489   -1.47807
 42 O     0.88169    0.08763   -0.19369
 43 O     0.94302    0.06395   -0.19873
 44 O    -0.57754    0.00981   -0.58645
 45 O    -0.44030    0.01468   -0.75019
 46 O    -0.28455    0.12665   -0.93081
 47 O    -0.31212    0.11442   -0.88582
 48 O    -0.24844   -0.00138   -0.10270
 49 O    -0.10883   -0.00503    1.15046
 50 Ti   -0.71497   -0.05423   -0.83613
 51 Ti    0.07515    0.18341   -0.14418
 52 Ti   -0.11802    0.20706    0.45813
 53 Ti    0.95346    0.00419   -0.46847
 54 O     0.39839   -0.01415    0.15299
 55 O    -0.07684    0.18492    0.11074
 56 O     0.09458    0.01707   -0.13544
 57 O     0.21826   -0.19979    0.05733
 58 O     0.40124   -0.05235    0.36042
 59 O    -0.32172   -0.08774   -0.50205
 60 O    -0.62422   -0.01545   -0.60748
 61 Ti   -0.18031    0.06793    0.80233
 62 Ti    0.45852    0.65354    0.12391
 63 Ti   -0.37929    0.50849    0.82345
 64 Ti    0.33288    0.07479   -0.61157
 65 O     0.11245   -0.16040   -0.17282
 66 O    -0.38459    0.06308    0.41600
 67 O     0.22071   -0.03247   -0.21163
 68 O    -0.29299    0.01149    0.30627
 69 O    -0.34419   -0.35066    0.17857
 70 O     0.43394   -0.01271   -0.48735
 71 O    -1.96915   -0.01638    1.32184
 72 O    -2.02594   -0.00497    1.38468
 73 Ti    3.54907    0.03611    1.43556
 74 Ti    3.80432    0.09161    1.68120
 75 Ti   -1.84714    0.08498   -1.50479
 76 Ti   -1.56753    0.02426   -1.69838
 77 O     0.95739   -0.06198   -0.20805
 78 O     0.89764   -0.09111   -0.19549
 79 O    -0.61560   -0.01724   -0.68160
 80 O    -0.59329   -0.01770   -0.53917
 81 O    -0.32441   -0.08442   -0.89682
 82 O    -0.27481   -0.12954   -0.91487
 83 O     0.11764   -0.00214    0.05904
 84 O    -0.34792    0.01180   -0.14416
 85 Ti    0.20456   -0.23009   -0.17662
 86 Ti   -0.45315    0.05816   -0.20939
 87 Ti    0.29963   -0.01307   -0.19745
 88 Ti    0.10006   -0.23817    0.47407
 89 O     0.07295   -0.08231    0.05195
 90 O     0.23944    0.03791   -0.08060
 91 O     0.02606   -0.00146    0.55765
 92 O     0.01600   -0.00148   -0.18318
 93 O     0.12656   -0.11832    0.06962
 94 O    -0.07733    0.20671    0.24368
 95 O     0.39441    0.01261   -0.02077
 96 O    -0.40605    0.04829   -0.54849
 97 Ti    0.53142   -0.55369    0.13945
 98 Ti   -0.58824   -0.03491   -0.19756
 99 Ti    0.32259   -0.02598   -0.63650
100 Ti   -0.20168   -0.50298    0.69971
101 O    -0.33515   -0.11520    0.42993
102 O     0.12280    0.16348   -0.03545
103 O    -0.28956   -0.01467    0.26110
104 O     0.09407    0.02781   -0.23382
105 O     0.38519   -0.27042   -0.01350
106 O    -0.37020    0.33774    0.20940
107 V     0.02691    0.20726    0.28633
108 V     0.00860   -0.19816    0.28676
109 O     0.04078    0.32609    0.15006
110 O     0.36021   -0.23119    0.17648
111 O     0.02744   -0.01517   -0.10885
112 O     0.27366    0.29360    0.18655
113 O    -0.16082    0.03564   -0.17980
114 O    -0.21180   -0.35801    0.14955
115 H     0.02856    0.23759   -0.35187
116 H     0.00613   -0.24416   -0.33347

System changes: positions 

Initializing position-dependent things.

Density initialized from wave functions
                                               
                                               
                                               
                                               
                                               
                                               
                       O                       
                    O          H  O            
             O   H   V        OTi              
                  Oi    O      OV   O          
          O      O    O      Oi     Ti         
               Ti     TO     O   O             
               O    O     OTii     O           
         O   OTi    Ti     O   O Ti            
             Ti   OOOO  O   O  Tii             
             OO           Ti  O  O   O         
           OTi    Ti     O                     
            O   O     OTi     Oi               
          Ti    TOO    OO   O      OTi         
          O   O O    OTi    Tii     O          
              TiO     O   OO    O Ti           
             O     OTi     Oi     O            
             Oi     O    O     OTi             
           O      Ti    Ti                     
           Ti          O     O O               
               O                               
                                               
                                               
                                               
                                               

Positions:
   0 O      8.476572    1.911173    6.000000    ( 0.0000,  0.0000,  0.0000)
   1 O      3.305699    0.000000    6.000000    ( 0.0000,  0.0000,  0.0000)
   2 Ti     1.412752    0.000000    6.752957    ( 0.0000,  0.0000,  0.0000)
   3 Ti     6.583625    1.911173    6.752957    ( 0.0000,  0.0000,  0.0000)
   4 Ti     9.522250    1.911173    7.640878    ( 0.0000,  0.0000,  0.0000)
   5 Ti     4.351376    0.000000    7.640878    ( 0.0000,  0.0000,  0.0000)
   6 O      9.861551    0.000000    7.505914    ( 0.0000,  0.0000,  0.0000)
   7 O      4.690678    1.911173    7.505914    ( 0.0000,  0.0000,  0.0000)
   8 O      7.629303    1.911173    8.393834    ( 0.0000,  0.0000,  0.0000)
   9 O      2.458430    0.000000    8.393834    ( 0.0000,  0.0000,  0.0000)
  10 O      6.244323    0.000000    6.887921    ( 0.0000,  0.0000,  0.0000)
  11 O      1.073450    1.911173    6.887921    ( 0.0000,  0.0000,  0.0000)
  12 O      9.802521    1.908434    9.580613    ( 0.0000,  0.0000,  0.0000)
  13 O      4.629261   -0.000180    9.580112    ( 0.0000,  0.0000,  0.0000)
  14 Ti     2.747527    0.016783   10.383784    ( 0.0000,  0.0000,  0.0000)
  15 Ti     7.917828    1.886101   10.385533    ( 0.0000,  0.0000,  0.0000)
  16 Ti     0.486091    1.933892   11.132861    ( 0.0000,  0.0000,  0.0000)
  17 Ti     5.658072   11.441594   11.133962    ( 0.0000,  0.0000,  0.0000)
  18 O      0.909232   -0.006267   11.093453    ( 0.0000,  0.0000,  0.0000)
  19 O      6.079091    1.911433   11.094639    ( 0.0000,  0.0000,  0.0000)
  20 O      9.030556    1.880636   11.952285    ( 0.0000,  0.0000,  0.0000)
  21 O      3.858583    0.022686   11.952181    ( 0.0000,  0.0000,  0.0000)
  22 O      7.549684   -0.012274   10.446937    ( 0.0000,  0.0000,  0.0000)
  23 O      2.381526    1.922060   10.451474    ( 0.0000,  0.0000,  0.0000)
  24 O      0.930901    1.918475   13.081049    ( 0.0000,  0.0000,  0.0000)
  25 O      6.099661   -0.018185   13.081475    ( 0.0000,  0.0000,  0.0000)
  26 Ti     4.198516    0.049374   14.004351    ( 0.0000,  0.0000,  0.0000)
  27 Ti     9.370389    1.850486   14.002459    ( 0.0000,  0.0000,  0.0000)
  28 Ti     1.834357    1.923378   14.635784    ( 0.0000,  0.0000,  0.0000)
  29 Ti     7.006659   11.447688   14.633457    ( 0.0000,  0.0000,  0.0000)
  30 O      2.382235    0.032979   14.835341    ( 0.0000,  0.0000,  0.0000)
  31 O      7.550837    1.868225   14.828567    ( 0.0000,  0.0000,  0.0000)
  32 O      0.192716    1.857455   15.459789    ( 0.0000,  0.0000,  0.0000)
  33 O      5.360861    0.046863   15.460476    ( 0.0000,  0.0000,  0.0000)
  34 O      8.996313   11.426654   13.970754    ( 0.0000,  0.0000,  0.0000)
  35 O      3.822578    1.948837   13.962369    ( 0.0000,  0.0000,  0.0000)
  36 O      8.476572    5.733518    6.000000    ( 0.0000,  0.0000,  0.0000)
  37 O      3.305699    3.822345    6.000000    ( 0.0000,  0.0000,  0.0000)
  38 Ti     1.412752    3.822345    6.752957    ( 0.0000,  0.0000,  0.0000)
  39 Ti     6.583625    5.733518    6.752957    ( 0.0000,  0.0000,  0.0000)
  40 Ti     9.522250    5.733518    7.640878    ( 0.0000,  0.0000,  0.0000)
  41 Ti     4.351376    3.822345    7.640878    ( 0.0000,  0.0000,  0.0000)
  42 O      9.861551    3.822345    7.505914    ( 0.0000,  0.0000,  0.0000)
  43 O      4.690678    5.733518    7.505914    ( 0.0000,  0.0000,  0.0000)
  44 O      7.629303    5.733518    8.393834    ( 0.0000,  0.0000,  0.0000)
  45 O      2.458430    3.822345    8.393834    ( 0.0000,  0.0000,  0.0000)
  46 O      6.244323    3.822345    6.887921    ( 0.0000,  0.0000,  0.0000)
  47 O      1.073450    5.733518    6.887921    ( 0.0000,  0.0000,  0.0000)
  48 O      9.822421    5.730598    9.597597    ( 0.0000,  0.0000,  0.0000)
  49 O      4.632979    3.829375    9.627283    ( 0.0000,  0.0000,  0.0000)
  50 Ti     2.819668    3.826017   10.346349    ( 0.0000,  0.0000,  0.0000)
  51 Ti     7.905361    5.682785   10.328628    ( 0.0000,  0.0000,  0.0000)
  52 Ti     0.540062    5.712956   11.158071    ( 0.0000,  0.0000,  0.0000)
  53 Ti     5.679235    3.816059   11.280979    ( 0.0000,  0.0000,  0.0000)
  54 O      0.893076    3.824400   11.096815    ( 0.0000,  0.0000,  0.0000)
  55 O      6.087698    5.730243   11.107704    ( 0.0000,  0.0000,  0.0000)
  56 O      9.016726    5.751164   11.931993    ( 0.0000,  0.0000,  0.0000)
  57 O      7.563458    3.820732   10.458556    ( 0.0000,  0.0000,  0.0000)
  58 O      2.376715    5.726782   10.457786    ( 0.0000,  0.0000,  0.0000)
  59 O      0.864592    5.668000   13.229564    ( 0.0000,  0.0000,  0.0000)
  60 O      6.034557    3.806605   13.209503    ( 0.0000,  0.0000,  0.0000)
  61 Ti     4.317177    3.801548   14.050073    ( 0.0000,  0.0000,  0.0000)
  62 Ti     9.250169    5.597853   13.804277    ( 0.0000,  0.0000,  0.0000)
  63 Ti     1.959204    5.645495   14.730478    ( 0.0000,  0.0000,  0.0000)
  64 Ti     7.077450    3.780445   15.037895    ( 0.0000,  0.0000,  0.0000)
  65 O      2.323379    3.783544   14.999417    ( 0.0000,  0.0000,  0.0000)
  66 O      7.505318    5.720694   14.621701    ( 0.0000,  0.0000,  0.0000)
  67 O     -0.139813    5.728069   15.622087    ( 0.0000,  0.0000,  0.0000)
  68 O      5.346246    3.814987   15.608342    ( 0.0000,  0.0000,  0.0000)
  69 O      9.019013    3.769619   13.944412    ( 0.0000,  0.0000,  0.0000)
  70 O      3.689385    5.659396   13.959967    ( 0.0000,  0.0000,  0.0000)
  71 O      8.476572    9.555862    6.000000    ( 0.0000,  0.0000,  0.0000)
  72 O      3.305699    7.644690    6.000000    ( 0.0000,  0.0000,  0.0000)
  73 Ti     1.412752    7.644690    6.752957    ( 0.0000,  0.0000,  0.0000)
  74 Ti     6.583625    9.555862    6.752957    ( 0.0000,  0.0000,  0.0000)
  75 Ti     9.522250    9.555862    7.640878    ( 0.0000,  0.0000,  0.0000)
  76 Ti     4.351376    7.644690    7.640878    ( 0.0000,  0.0000,  0.0000)
  77 O      9.861551    7.644690    7.505914    ( 0.0000,  0.0000,  0.0000)
  78 O      4.690678    9.555862    7.505914    ( 0.0000,  0.0000,  0.0000)
  79 O      7.629303    9.555862    8.393834    ( 0.0000,  0.0000,  0.0000)
  80 O      2.458430    7.644690    8.393834    ( 0.0000,  0.0000,  0.0000)
  81 O      6.244323    7.644690    6.887921    ( 0.0000,  0.0000,  0.0000)
  82 O      1.073450    9.555862    6.887921    ( 0.0000,  0.0000,  0.0000)
  83 O      9.806656    9.545140    9.611620    ( 0.0000,  0.0000,  0.0000)
  84 O      4.648145    7.644604    9.596863    ( 0.0000,  0.0000,  0.0000)
  85 Ti     2.734863    7.690808   10.324569    ( 0.0000,  0.0000,  0.0000)
  86 Ti     7.999219    9.549478   10.353823    ( 0.0000,  0.0000,  0.0000)
  87 Ti     0.497770    9.560085   11.293507    ( 0.0000,  0.0000,  0.0000)
  88 Ti     5.718091    7.666676   11.156921    ( 0.0000,  0.0000,  0.0000)
  89 O      0.916868    7.646649   11.107790    ( 0.0000,  0.0000,  0.0000)
  90 O      6.060648    9.551865   11.091211    ( 0.0000,  0.0000,  0.0000)
  91 O      9.025439    9.557062   11.973115    ( 0.0000,  0.0000,  0.0000)
  92 O      3.841956    7.626264   11.929047    ( 0.0000,  0.0000,  0.0000)
  93 O      7.544658    7.647945   10.453595    ( 0.0000,  0.0000,  0.0000)
  94 O      2.387507    9.554491   10.460459    ( 0.0000,  0.0000,  0.0000)
  95 O      0.881664    9.566596   13.224088    ( 0.0000,  0.0000,  0.0000)
  96 O      6.030061    7.704965   13.220357    ( 0.0000,  0.0000,  0.0000)
  97 Ti     4.076705    7.773733   13.794237    ( 0.0000,  0.0000,  0.0000)
  98 Ti     9.491876    9.569967   14.042417    ( 0.0000,  0.0000,  0.0000)
  99 Ti     1.919495    9.579983   15.059850    ( 0.0000,  0.0000,  0.0000)
 100 Ti     7.127635    7.737864   14.725131    ( 0.0000,  0.0000,  0.0000)
 101 O      2.327815    7.647836   14.613738    ( 0.0000,  0.0000,  0.0000)
 102 O      7.494286    9.592503   14.998370    ( 0.0000,  0.0000,  0.0000)
 103 O      0.184736    9.556022   15.616545    ( 0.0000,  0.0000,  0.0000)
 104 O      5.062278    7.655786   15.602106    ( 0.0000,  0.0000,  0.0000)
 105 O      8.860205    7.713511   13.967917    ( 0.0000,  0.0000,  0.0000)
 106 O      3.844369    9.600362   13.947328    ( 0.0000,  0.0000,  0.0000)
 107 V      3.785708    7.719359   16.862568    ( 0.0000,  0.0000,  0.0000)
 108 V      8.870139    5.650570   16.839577    ( 0.0000,  0.0000,  0.0000)
 109 O      7.765485    7.204808   16.723137    ( 0.0000,  0.0000,  0.0000)
 110 O      2.824250    9.187740   16.712619    ( 0.0000,  0.0000,  0.0000)
 111 O      9.509981    5.727356   18.286244    ( 0.0000,  0.0000,  0.0000)
 112 O      7.976817    4.142937   16.697569    ( 0.0000,  0.0000,  0.0000)
 113 O      4.500754    7.668550   18.275675    ( 0.0000,  0.0000,  0.0000)
 114 O      2.714419    6.152721   16.730867    ( 0.0000,  0.0000,  0.0000)
 115 H      2.701587    5.531434   17.480455    ( 0.0000,  0.0000,  0.0000)
 116 H      7.750448    7.820874   17.477301    ( 0.0000,  0.0000,  0.0000)

Unit cell:
           periodic     x           y           z      points  spacing
  1. axis:    yes   10.341746    0.000000    0.000000    54     0.1915
  2. axis:    yes   -0.000000   11.467000    0.000000    60     0.1911
  3. axis:    no     0.000000    0.000000   23.497201   125     0.1880

  Lengths:  10.341746  11.467000  23.497201
  Angles:   90.000000  90.000000  90.000000

Effective grid spacing dv^(1/3) = 0.1902

                     log10-error:    total        iterations:
           time      wfs    density  energy       fermi  poisson
iter:   1  15:26:08  -2.50   +inf  -874.989443    3             
iter:   2  15:26:46  -3.48  -2.92  -874.983012    2             
iter:   3  15:27:24  -3.38  -2.95  -874.961083    3             
iter:   4  15:28:03  -4.47  -3.18  -874.958447    2             
iter:   5  15:28:41  -4.26  -3.20  -874.952802    2             
iter:   6  15:29:19  -3.89  -3.37  -874.956686    2             
iter:   7  15:29:57  -4.84  -3.45  -874.953383    2             
iter:   8  15:30:35  -5.61  -3.72  -874.953025    2             
iter:   9  15:31:13  -5.54  -3.79  -874.952291    2             
iter:  10  15:31:52  -5.30  -3.96  -874.952504    2             
iter:  11  15:32:30  -6.58  -4.10  -874.952492    2             
iter:  12  15:33:08  -6.14  -4.12  -874.952641    2             
iter:  13  15:33:46  -6.00  -4.19  -874.952536    2             
iter:  14  15:34:24  -6.98  -4.46  -874.952436    2             
iter:  15  15:35:02  -7.28  -4.56  -874.952374    2             
iter:  16  15:35:41  -7.09  -4.67  -874.952324    1             
iter:  17  15:36:19  -7.38  -4.83  -874.952334    2             
iter:  18  15:36:57  -7.88  -4.95  -874.952360    2             

Converged after 18 iterations.

Dipole moment: (7.951163, -4.099096, -0.722781) |e|*Ang

Energy contributions relative to reference atoms: (reference = -1044876.112776)

Kinetic:       +592.904934
Potential:     -803.067210
External:        +0.000000
XC:            -675.363685
Entropy (-ST):   -0.079761
Local:          +10.613482
--------------------------
Free energy:   -874.992240
Extrapolated:  -874.952360

Fermi level: 0.65347

Showing all kpts
 Kpt  Band  Eigenvalues  Occupancy
  0   459     -1.39468    1.00000
  0   460      0.33408    0.96060
  0   461      1.06250    0.01646
  0   462      1.12123    0.00922

  1   459     -1.39499    1.00000
  1   460      0.33420    0.96056
  1   461      1.06174    0.01658
  1   462      1.12059    0.00927



Forces in eV/Ang:
  0 O    -2.00139    0.00684    1.31177
  1 O    -2.00322   -0.00638    1.31310
  2 Ti    3.77278    0.05369    1.67929
  3 Ti    3.80726   -0.06016    1.69255
  4 Ti   -1.93599   -0.02381   -1.86559
  5 Ti   -1.91011    0.02307   -1.85202
  6 O     0.92088   -0.04629   -0.19654
  7 O     0.90592    0.07608   -0.17564
  8 O    -0.63502    0.00258   -0.47511
  9 O    -0.64580    0.00603   -0.44925
 10 O    -0.29451   -0.03126   -0.91908
 11 O    -0.28300    0.02934   -0.91707
 12 O    -0.20833    0.00033   -0.03038
 13 O    -0.24191   -0.00383   -0.03150
 14 Ti    0.16444   -0.14183   -0.30059
 15 Ti    0.06969    0.15597   -0.31750
 16 Ti    0.15205   -0.17522    0.36601
 17 Ti    0.24539    0.16232    0.32737
 18 O     0.05294    0.11993   -0.01473
 19 O    -0.02063   -0.18353    0.02329
 20 O     0.00384   -0.01971    0.23351
 21 O    -0.03051   -0.00301    0.23530
 22 O     0.00112   -0.05502    0.04241
 23 O     0.21977    0.15924    0.32367
 24 O    -0.17120    0.02193    0.00380
 25 O    -0.20065   -0.00706    0.00759
 26 Ti    0.13940   -0.20104   -0.39781
 27 Ti    0.14396    0.16018   -0.37099
 28 Ti    0.22774   -0.12792    0.27103
 29 Ti    0.27565    0.08706    0.22393
 30 O     0.02114    0.09834    0.27487
 31 O    -0.02170   -0.05277    0.25291
 32 O     0.00756   -0.01875    0.21096
 33 O     0.01268    0.03476    0.18419
 34 O    -0.36981   -0.00654    0.22806
 35 O    -0.39935    0.19030   -0.14866
 36 O    -2.02360    0.00699    1.37471
 37 O    -1.87639    0.01509    1.29025
 38 Ti    3.76886   -0.09079    1.69658
 39 Ti    3.59228   -0.03901    1.45466
 40 Ti   -1.60719   -0.04192   -1.70060
 41 Ti   -1.98806   -0.08398   -1.39209
 42 O     0.89091    0.08818   -0.20103
 43 O     0.93533    0.02301   -0.18832
 44 O    -0.60204    0.00106   -0.58261
 45 O    -0.43704    0.01903   -0.81145
 46 O    -0.29686    0.12154   -0.92541
 47 O    -0.30425    0.09336   -0.89223
 48 O    -0.20466   -0.00424   -0.03832
 49 O    -0.11033   -0.00272    0.78454
 50 Ti   -0.59418   -0.05349   -0.62301
 51 Ti    0.10188    0.23233   -0.16761
 52 Ti   -0.02249    0.13690    0.33624
 53 Ti    0.67285   -0.02222   -0.32747
 54 O     0.30626    0.04544    0.11894
 55 O    -0.00663    0.16296    0.07296
 56 O     0.04988    0.00713   -0.04173
 57 O     0.21817   -0.13006    0.05068
 58 O     0.31250    0.02674    0.35194
 59 O    -0.22090   -0.06916   -0.27550
 60 O    -0.48979   -0.01517   -0.38965
 61 Ti   -0.16060    0.04385    0.63377
 62 Ti    0.35515    0.47445    0.08220
 63 Ti   -0.25211    0.39382    0.57317
 64 Ti    0.12098    0.02328   -0.54370
 65 O     0.09262    0.04559   -0.11858
 66 O    -0.28036    0.10663    0.34284
 67 O     0.23296   -0.03393   -0.19199
 68 O    -0.03514    0.01697    0.26400
 69 O    -0.37449   -0.03922    0.16944
 70 O     0.18104    0.09148   -0.33173
 71 O    -1.97253   -0.01609    1.32338
 72 O    -2.03064   -0.00787    1.37663
 73 Ti    3.54818    0.04572    1.42903
 74 Ti    3.78013    0.08923    1.66159
 75 Ti   -1.81767    0.08398   -1.47761
 76 Ti   -1.56300    0.04433   -1.68661
 77 O     0.95336   -0.06165   -0.21065
 78 O     0.90317   -0.09195   -0.20511
 79 O    -0.61358   -0.02075   -0.66462
 80 O    -0.62027   -0.01640   -0.56207
 81 O    -0.31830   -0.08740   -0.90228
 82 O    -0.27465   -0.12494   -0.91367
 83 O     0.06279   -0.00299    0.05781
 84 O    -0.25327    0.01272   -0.05046
 85 Ti    0.18322   -0.23217   -0.15988
 86 Ti   -0.28750    0.05727   -0.08553
 87 Ti    0.19608    0.01847   -0.09963
 88 Ti    0.03870   -0.16971    0.33125
 89 O     0.07402   -0.08299    0.03481
 90 O     0.22070   -0.02921   -0.08844
 91 O     0.01619   -0.00610    0.38430
 92 O     0.03012    0.01931   -0.06396
 93 O     0.11119   -0.11662    0.06961
 94 O    -0.05702    0.12241    0.22016
 95 O     0.29859    0.01423    0.02001
 96 O    -0.23940    0.04170   -0.30669
 97 Ti    0.35202   -0.43984    0.06715
 98 Ti   -0.30279   -0.01331   -0.13301
 99 Ti    0.01930    0.02826   -0.52675
100 Ti   -0.17798   -0.40064    0.50184
101 O    -0.20442   -0.18099    0.36396
102 O     0.11881   -0.04620   -0.03270
103 O    -0.11694   -0.01808    0.04440
104 O     0.15117    0.02341   -0.21887
105 O     0.18710   -0.33216    0.07077
106 O    -0.36751    0.04374    0.19118
107 V    -0.13792    0.10628   -0.05320
108 V    -0.02447   -0.09322    0.03356
109 O     0.06118   -0.03554   -0.23016
110 O     0.31271   -0.16915    0.14394
111 O     0.11140   -0.01479    0.11032
112 O     0.19831    0.20168    0.13052
113 O    -0.00910    0.03240    0.12977
114 O    -0.15913    0.04944   -0.24404
115 H     0.01553   -0.10834    0.04221
116 H    -0.00057    0.08311    0.04660

System changes: positions 

Initializing position-dependent things.

Density initialized from wave functions
                                                
                                                
                                                
                                                
                                                
                                                
                       O                        
                    O          H  O             
              O       V        OTi              
                  Hi            OV   O          
                       O O    O      Ti         
           O    O O           Ti  O             
                Ti    TO   O O                  
         O      O   O      TiTi   TiO           
             TiTi   TiO    OO   O               
             O O  OO O   OTi   TiOi             
           OTi    Tii     O    O     O          
                 O      Ti    TiO               
            O    Ti   O  O  O  O   O Ti         
          Ti    OO   O Oi     Ti    O           
          O    OTi          TiO   O             
              TiO   O  O  O      OTi            
                   O Ti    Oi     O             
             Oi     O    O      Ti              
           O      Ti     Ti    O                
           Ti          O     O                  
                O                               
                                                
                                                
                                                
                                                

Positions:
   0 O      8.476572    1.911173    6.000000    ( 0.0000,  0.0000,  0.0000)
   1 O      3.305699    0.000000    6.000000    ( 0.0000,  0.0000,  0.0000)
   2 Ti     1.412752    0.000000    6.752957    ( 0.0000,  0.0000,  0.0000)
   3 Ti     6.583625    1.911173    6.752957    ( 0.0000,  0.0000,  0.0000)
   4 Ti     9.522250    1.911173    7.640878    ( 0.0000,  0.0000,  0.0000)
   5 Ti     4.351376    0.000000    7.640878    ( 0.0000,  0.0000,  0.0000)
   6 O      9.861551    0.000000    7.505914    ( 0.0000,  0.0000,  0.0000)
   7 O      4.690678    1.911173    7.505914    ( 0.0000,  0.0000,  0.0000)
   8 O      7.629303    1.911173    8.393834    ( 0.0000,  0.0000,  0.0000)
   9 O      2.458430    0.000000    8.393834    ( 0.0000,  0.0000,  0.0000)
  10 O      6.244323    0.000000    6.887921    ( 0.0000,  0.0000,  0.0000)
  11 O      1.073450    1.911173    6.887921    ( 0.0000,  0.0000,  0.0000)
  12 O      9.793029    1.908389    9.578532    ( 0.0000,  0.0000,  0.0000)
  13 O      4.617849   -0.000299    9.577633    ( 0.0000,  0.0000,  0.0000)
  14 Ti     2.754502    0.009620   10.369493    ( 0.0000,  0.0000,  0.0000)
  15 Ti     7.920239    1.893984   10.370774    ( 0.0000,  0.0000,  0.0000)
  16 Ti     0.492678    1.925855   11.149452    ( 0.0000,  0.0000,  0.0000)
  17 Ti     5.670192   11.448978   11.149092    ( 0.0000,  0.0000,  0.0000)
  18 O      0.911523   -0.000717   11.093053    ( 0.0000,  0.0000,  0.0000)
  19 O      6.077572    1.903011   11.096069    ( 0.0000,  0.0000,  0.0000)
  20 O      9.031568    1.879801   11.963866    ( 0.0000,  0.0000,  0.0000)
  21 O      3.857442    0.022613   11.963847    ( 0.0000,  0.0000,  0.0000)
  22 O      7.549492   -0.015285   10.448963    ( 0.0000,  0.0000,  0.0000)
  23 O      2.391485    1.930404   10.465961    ( 0.0000,  0.0000,  0.0000)
  24 O      0.921874    1.919531   13.078139    ( 0.0000,  0.0000,  0.0000)
  25 O      6.088932   -0.018460   13.078787    ( 0.0000,  0.0000,  0.0000)
  26 Ti     4.203429    0.039491   13.985355    ( 0.0000,  0.0000,  0.0000)
  27 Ti     9.374690    1.857598   13.984517    ( 0.0000,  0.0000,  0.0000)
  28 Ti     1.848461    1.917909   14.649849    ( 0.0000,  0.0000,  0.0000)
  29 Ti     7.023761   11.451124   14.644945    ( 0.0000,  0.0000,  0.0000)
  30 O      2.383004    0.037616   14.847582    ( 0.0000,  0.0000,  0.0000)
  31 O      7.549985    1.865424   14.839809    ( 0.0000,  0.0000,  0.0000)
  32 O      0.192152    1.856517   15.471296    ( 0.0000,  0.0000,  0.0000)
  33 O      5.359800    0.048541   15.470933    ( 0.0000,  0.0000,  0.0000)
  34 O      8.979903   11.426392   13.980979    ( 0.0000,  0.0000,  0.0000)
  35 O      3.804687    1.958107   13.955674    ( 0.0000,  0.0000,  0.0000)
  36 O      8.476572    5.733518    6.000000    ( 0.0000,  0.0000,  0.0000)
  37 O      3.305699    3.822345    6.000000    ( 0.0000,  0.0000,  0.0000)
  38 Ti     1.412752    3.822345    6.752957    ( 0.0000,  0.0000,  0.0000)
  39 Ti     6.583625    5.733518    6.752957    ( 0.0000,  0.0000,  0.0000)
  40 Ti     9.522250    5.733518    7.640878    ( 0.0000,  0.0000,  0.0000)
  41 Ti     4.351376    3.822345    7.640878    ( 0.0000,  0.0000,  0.0000)
  42 O      9.861551    3.822345    7.505914    ( 0.0000,  0.0000,  0.0000)
  43 O      4.690678    5.733518    7.505914    ( 0.0000,  0.0000,  0.0000)
  44 O      7.629303    5.733518    8.393834    ( 0.0000,  0.0000,  0.0000)
  45 O      2.458430    3.822345    8.393834    ( 0.0000,  0.0000,  0.0000)
  46 O      6.244323    3.822345    6.887921    ( 0.0000,  0.0000,  0.0000)
  47 O      1.073450    5.733518    6.887921    ( 0.0000,  0.0000,  0.0000)
  48 O      9.813035    5.730434    9.595376    ( 0.0000,  0.0000,  0.0000)
  49 O      4.628126    3.829236    9.664901    ( 0.0000,  0.0000,  0.0000)
  50 Ti     2.792468    3.823652   10.317115    ( 0.0000,  0.0000,  0.0000)
  51 Ti     7.909633    5.692626   10.321430    ( 0.0000,  0.0000,  0.0000)
  52 Ti     0.538281    5.719572   11.173905    ( 0.0000,  0.0000,  0.0000)
  53 Ti     5.711224    3.815297   11.265374    ( 0.0000,  0.0000,  0.0000)
  54 O      0.907342    3.825911   11.102341    ( 0.0000,  0.0000,  0.0000)
  55 O      6.086826    5.737610   11.111233    ( 0.0000,  0.0000,  0.0000)
  56 O      9.019295    5.751561   11.929379    ( 0.0000,  0.0000,  0.0000)
  57 O      7.573079    3.814421   10.460846    ( 0.0000,  0.0000,  0.0000)
  58 O      2.391228    5.727308   10.473376    ( 0.0000,  0.0000,  0.0000)
  59 O      0.854018    5.664796   13.215544    ( 0.0000,  0.0000,  0.0000)
  60 O      6.011848    3.805933   13.190521    ( 0.0000,  0.0000,  0.0000)
  61 Ti     4.309932    3.803680   14.079412    ( 0.0000,  0.0000,  0.0000)
  62 Ti     9.266684    5.620254   13.808246    ( 0.0000,  0.0000,  0.0000)
  63 Ti     1.947036    5.663809   14.757821    ( 0.0000,  0.0000,  0.0000)
  64 Ti     7.084535    3.781897   15.013359    ( 0.0000,  0.0000,  0.0000)
  65 O      2.327627    3.783853   14.993740    ( 0.0000,  0.0000,  0.0000)
  66 O      7.492094    5.725037   14.637424    ( 0.0000,  0.0000,  0.0000)
  67 O     -0.129641    5.726584   15.613459    ( 0.0000,  0.0000,  0.0000)
  68 O      5.342566    3.815690   15.620333    ( 0.0000,  0.0000,  0.0000)
  69 O      9.002749    3.765317   13.951959    ( 0.0000,  0.0000,  0.0000)
  70 O      3.699458    5.662570   13.944054    ( 0.0000,  0.0000,  0.0000)
  71 O      8.476572    9.555862    6.000000    ( 0.0000,  0.0000,  0.0000)
  72 O      3.305699    7.644690    6.000000    ( 0.0000,  0.0000,  0.0000)
  73 Ti     1.412752    7.644690    6.752957    ( 0.0000,  0.0000,  0.0000)
  74 Ti     6.583625    9.555862    6.752957    ( 0.0000,  0.0000,  0.0000)
  75 Ti     9.522250    9.555862    7.640878    ( 0.0000,  0.0000,  0.0000)
  76 Ti     4.351376    7.644690    7.640878    ( 0.0000,  0.0000,  0.0000)
  77 O      9.861551    7.644690    7.505914    ( 0.0000,  0.0000,  0.0000)
  78 O      4.690678    9.555862    7.505914    ( 0.0000,  0.0000,  0.0000)
  79 O      7.629303    9.555862    8.393834    ( 0.0000,  0.0000,  0.0000)
  80 O      2.458430    7.644690    8.393834    ( 0.0000,  0.0000,  0.0000)
  81 O      6.244323    7.644690    6.887921    ( 0.0000,  0.0000,  0.0000)
  82 O      1.073450    9.555862    6.887921    ( 0.0000,  0.0000,  0.0000)
  83 O      9.809877    9.545015    9.614179    ( 0.0000,  0.0000,  0.0000)
  84 O      4.636195    7.645158    9.593864    ( 0.0000,  0.0000,  0.0000)
  85 Ti     2.743119    7.680587   10.317381    ( 0.0000,  0.0000,  0.0000)
  86 Ti     7.985173    9.552011   10.349029    ( 0.0000,  0.0000,  0.0000)
  87 Ti     0.507272    9.560638   11.288305    ( 0.0000,  0.0000,  0.0000)
  88 Ti     5.720304    7.658627   11.172708    ( 0.0000,  0.0000,  0.0000)
  89 O      0.920123    7.642995   11.109467    ( 0.0000,  0.0000,  0.0000)
  90 O      6.070535    9.551132   11.087375    ( 0.0000,  0.0000,  0.0000)
  91 O      9.026234    9.556832   11.991493    ( 0.0000,  0.0000,  0.0000)
  92 O      3.843167    7.626944   11.925242    ( 0.0000,  0.0000,  0.0000)
  93 O      7.549688    7.642788   10.456665    ( 0.0000,  0.0000,  0.0000)
  94 O      2.384824    9.560586   10.470362    ( 0.0000,  0.0000,  0.0000)
  95 O      0.895623    9.567210   13.224633    ( 0.0000,  0.0000,  0.0000)
  96 O      6.018128    7.706858   13.204835    ( 0.0000,  0.0000,  0.0000)
  97 Ti     4.093710    7.753397   13.797795    ( 0.0000,  0.0000,  0.0000)
  98 Ti     9.476166    9.569202   14.036019    ( 0.0000,  0.0000,  0.0000)
  99 Ti     1.922851    9.580782   15.035715    ( 0.0000,  0.0000,  0.0000)
 100 Ti     7.119591    7.719352   14.748895    ( 0.0000,  0.0000,  0.0000)
 101 O      2.317721    7.640398   14.630332    ( 0.0000,  0.0000,  0.0000)
 102 O      7.499558    9.592198   14.996905    ( 0.0000,  0.0000,  0.0000)
 103 O      0.178154    9.555252   15.620293    ( 0.0000,  0.0000,  0.0000)
 104 O      5.068473    7.656855   15.592331    ( 0.0000,  0.0000,  0.0000)
 105 O      8.870092    7.699374   13.970341    ( 0.0000,  0.0000,  0.0000)
 106 O      3.828140    9.604719   13.955909    ( 0.0000,  0.0000,  0.0000)
 107 V      3.780988    7.724880   16.863027    ( 0.0000,  0.0000,  0.0000)
 108 V      8.869333    5.645593   16.843148    ( 0.0000,  0.0000,  0.0000)
 109 O      7.768015    7.206227   16.716128    ( 0.0000,  0.0000,  0.0000)
 110 O      2.838432    9.179768   16.719236    ( 0.0000,  0.0000,  0.0000)
 111 O      9.514200    5.726701   18.289298    ( 0.0000,  0.0000,  0.0000)
 112 O      7.986185    4.152590   16.703788    ( 0.0000,  0.0000,  0.0000)
 113 O      4.499100    7.670005   18.278841    ( 0.0000,  0.0000,  0.0000)
 114 O      2.706967    6.151535   16.723357    ( 0.0000,  0.0000,  0.0000)
 115 H      2.702379    5.529513   17.479062    ( 0.0000,  0.0000,  0.0000)
 116 H      7.750478    7.821836   17.476217    ( 0.0000,  0.0000,  0.0000)

Unit cell:
           periodic     x           y           z      points  spacing
  1. axis:    yes   10.341746    0.000000    0.000000    54     0.1915
  2. axis:    yes   -0.000000   11.467000    0.000000    60     0.1911
  3. axis:    no     0.000000    0.000000   23.497201   125     0.1880

  Lengths:  10.341746  11.467000  23.497201
  Angles:   90.000000  90.000000  90.000000

Effective grid spacing dv^(1/3) = 0.1902

                     log10-error:    total        iterations:
           time      wfs    density  energy       fermi  poisson
iter:   1  15:37:58  -1.83   +inf  -875.368973    4             
iter:   2  15:38:36  -2.77  -2.57  -875.331700    3             
iter:   3  15:39:14  -3.35  -2.67  -875.307236    3             
iter:   4  15:39:52  -2.99  -2.73  -875.268248    3             
iter:   5  15:40:31  -3.66  -2.93  -875.257134    3             
iter:   6  15:41:09  -3.89  -3.03  -875.250762    3             
iter:   7  15:41:47  -3.99  -3.22  -875.256926    3             
iter:   8  15:42:25  -4.79  -3.38  -875.254159    3             
iter:   9  15:43:03  -4.42  -3.50  -875.250720    3             
iter:  10  15:43:41  -4.93  -3.60  -875.251422    3             
iter:  11  15:44:19  -5.86  -3.71  -875.250865    2             
iter:  12  15:44:57  -5.80  -3.79  -875.251194    2             
iter:  13  15:45:35  -5.87  -3.94  -875.251803    2             
iter:  14  15:46:13  -5.40  -4.05  -875.250886    2             
iter:  15  15:46:51  -6.29  -4.20  -875.250807    2             
iter:  16  15:47:29  -5.99  -4.36  -875.250922    2             
iter:  17  15:48:08  -6.61  -4.51  -875.251011    2             
iter:  18  15:48:46  -6.70  -4.54  -875.251258    2             
iter:  19  15:49:24  -6.76  -4.72  -875.251233    2             
iter:  20  15:50:02  -6.88  -4.76  -875.251008    2             
iter:  21  15:50:40  -7.55  -4.92  -875.251045    2             

Converged after 21 iterations.

Dipole moment: (7.496308, -4.574797, -0.789594) |e|*Ang

Energy contributions relative to reference atoms: (reference = -1044876.112776)

Kinetic:       +582.035177
Potential:     -794.244575
External:        +0.000000
XC:            -673.618193
Entropy (-ST):   -0.166416
Local:          +10.659753
--------------------------
Free energy:   -875.334253
Extrapolated:  -875.251045

Fermi level: 0.72027

Showing all kpts
 Kpt  Band  Eigenvalues  Occupancy
  0   459     -1.41423    1.00000
  0   460      0.50265    0.89809
  0   461      1.03383    0.04166
  0   462      1.09157    0.02382

  1   459     -1.41454    1.00000
  1   460      0.50274    0.89800
  1   461      1.03280    0.04207
  1   462      1.09129    0.02389



Forces in eV/Ang:
  0 O    -2.02296    0.01057    1.31466
  1 O    -2.01185    0.00173    1.31079
  2 Ti    3.73548    0.01311    1.63107
  3 Ti    3.79075   -0.08830    1.61566
  4 Ti   -1.87144   -0.04696   -1.83119
  5 Ti   -1.86159   -0.03019   -1.82209
  6 O     0.91863   -0.03687   -0.20247
  7 O     0.88530    0.16889   -0.14408
  8 O    -0.70315    0.00959   -0.48788
  9 O    -0.70947    0.02182   -0.49004
 10 O    -0.29205   -0.00575   -0.90566
 11 O    -0.26705    0.07317   -0.90081
 12 O    -0.05582    0.01922    0.19363
 13 O    -0.02885   -0.01242    0.21465
 14 Ti    0.17942   -0.00908   -0.06142
 15 Ti    0.22605   -0.09789   -0.14397
 16 Ti    0.08685   -0.10031    0.16854
 17 Ti   -0.04128    0.03450    0.11967
 18 O     0.04338    0.08409   -0.04932
 19 O     0.09035   -0.05162   -0.05038
 20 O    -0.09584   -0.02356   -0.04704
 21 O    -0.02385   -0.01462   -0.03791
 22 O     0.04288    0.07658    0.02284
 23 O     0.14155   -0.10654    0.27862
 24 O     0.02312    0.00233    0.38609
 25 O     0.06427   -0.01303    0.35144
 26 Ti    0.20603   -0.01742   -0.00348
 27 Ti    0.29986    0.11240    0.04120
 28 Ti   -0.32325   -0.09594    0.06612
 29 Ti   -0.40569    0.09075    0.11960
 30 O     0.07111    0.02970    0.20515
 31 O    -0.01295    0.06960    0.17225
 32 O     0.12425    0.00727   -0.17396
 33 O     0.19055    0.01448   -0.21865
 34 O    -0.22305    0.04575    0.17295
 35 O    -0.24936   -0.02115   -0.12785
 36 O    -2.03431    0.00205    1.37518
 37 O    -1.79927    0.01300    1.36003
 38 Ti    3.59425   -0.07927    1.57507
 39 Ti    3.59488    0.00388    1.39505
 40 Ti   -1.57654   -0.01499   -1.68962
 41 Ti   -1.87470   -0.07399   -1.28395
 42 O     0.91804    0.08106   -0.21058
 43 O     0.90953   -0.07749   -0.15238
 44 O    -0.65974   -0.02014   -0.58844
 45 O    -0.43776    0.02687   -0.90300
 46 O    -0.33636    0.10303   -0.89508
 47 O    -0.28649    0.03255   -0.89368
 48 O    -0.07791   -0.01625    0.07991
 49 O    -0.13656   -0.00145    0.13115
 50 Ti   -0.34582   -0.01038   -0.22445
 51 Ti    0.18410    0.32416   -0.13908
 52 Ti    0.08167    0.06942    0.13658
 53 Ti    0.23481   -0.03004   -0.06802
 54 O     0.12458    0.06404    0.04445
 55 O     0.10604    0.01228   -0.00561
 56 O    -0.03240   -0.02004    0.06356
 57 O     0.14631    0.01537    0.06786
 58 O     0.16356    0.09336    0.30762
 59 O    -0.03786   -0.03451    0.09572
 60 O    -0.25855   -0.02209    0.02971
 61 Ti   -0.15685    0.03878    0.39625
 62 Ti    0.11209    0.23681    0.02888
 63 Ti   -0.10270    0.16010    0.11875
 64 Ti   -0.07419   -0.04881   -0.31726
 65 O     0.05709    0.31253   -0.02312
 66 O    -0.08422    0.11209    0.14738
 67 O     0.27422   -0.04002   -0.16422
 68 O     0.26384    0.01702    0.13886
 69 O    -0.38822    0.33999    0.13761
 70 O    -0.16251    0.19949   -0.06370
 71 O    -1.97191   -0.01438    1.33463
 72 O    -2.03039   -0.01468    1.37070
 73 Ti    3.53195    0.07257    1.39907
 74 Ti    3.73213    0.07716    1.61306
 75 Ti   -1.76679    0.07440   -1.42371
 76 Ti   -1.54792    0.09396   -1.67835
 77 O     0.94535   -0.06488   -0.21267
 78 O     0.90704   -0.08364   -0.21437
 79 O    -0.60235   -0.02713   -0.61230
 80 O    -0.67830   -0.01909   -0.60705
 81 O    -0.31346   -0.09591   -0.90467
 82 O    -0.27343   -0.10695   -0.90808
 83 O    -0.03077    0.00111    0.07224
 84 O    -0.05262    0.01188    0.09204
 85 Ti    0.11701   -0.15983   -0.06373
 86 Ti    0.04317    0.02095    0.11772
 87 Ti   -0.00561    0.02647    0.05185
 88 Ti   -0.06483   -0.01994    0.08990
 89 O     0.06166   -0.05112   -0.00044
 90 O     0.15801   -0.07266   -0.08247
 91 O     0.02715   -0.01097    0.04357
 92 O     0.04121    0.05859    0.08721
 93 O     0.08524   -0.07254    0.06245
 94 O    -0.00580   -0.03254    0.16933
 95 O     0.12972    0.02879    0.05540
 96 O     0.03722    0.02440    0.08110
 97 Ti    0.01347   -0.25062   -0.02786
 98 Ti    0.04206   -0.02658    0.00392
 99 Ti   -0.33600    0.09837   -0.26369
100 Ti   -0.13060   -0.15763    0.14858
101 O     0.01840   -0.22647    0.21212
102 O     0.09343   -0.33611   -0.05004
103 O     0.11388   -0.01580   -0.27963
104 O     0.22697    0.00930   -0.19126
105 O    -0.07892   -0.34315    0.18658
106 O    -0.31091   -0.33188    0.14065
107 V     0.08790   -0.02139    0.07987
108 V     0.18889    0.01826    0.06832
109 O     0.03253    0.13197    0.05237
110 O     0.11524    0.04033   -0.01578
111 O     0.06734   -0.01315    0.05834
112 O     0.01032   -0.01480   -0.05704
113 O    -0.08145    0.01831    0.00330
114 O    -0.14145   -0.12988    0.04947
115 H     0.00790    0.02648   -0.15495
116 H     0.00078   -0.02654   -0.12139

System changes: positions 

Initializing position-dependent things.

Density initialized from wave functions
                                                
                                                
                                                
                                                
                                                
                                                
                       O                        
                    O          H  O             
              O       V        OTi              
                  Hi            OV   O          
                       O O    O      Ti         
           O    O O           Ti  O             
                Ti    TO   O O                  
         O      O   O      TiTi   TiO           
             TiTi   TiO    OO   O               
             O O  OO O  O Ti   TiOi             
           OTi    Tii     O    O     O          
            O    O      Ti    TiO               
                 Ti   O  O  O  O   O Ti         
          Ti   OOO   O Oi     Ti    O           
          O     Ti          TiO   O             
              TiO   O  O  O     O Ti            
                   O Ti    Oi     O             
             Oi     O    O      Ti              
           O      Ti     Ti    O                
           Ti          O     O                  
               O                                
                                                
                                                
                                                
                                                

Positions:
   0 O      8.476572    1.911173    6.000000    ( 0.0000,  0.0000,  0.0000)
   1 O      3.305699    0.000000    6.000000    ( 0.0000,  0.0000,  0.0000)
   2 Ti     1.412752    0.000000    6.752957    ( 0.0000,  0.0000,  0.0000)
   3 Ti     6.583625    1.911173    6.752957    ( 0.0000,  0.0000,  0.0000)
   4 Ti     9.522250    1.911173    7.640878    ( 0.0000,  0.0000,  0.0000)
   5 Ti     4.351376    0.000000    7.640878    ( 0.0000,  0.0000,  0.0000)
   6 O      9.861551    0.000000    7.505914    ( 0.0000,  0.0000,  0.0000)
   7 O      4.690678    1.911173    7.505914    ( 0.0000,  0.0000,  0.0000)
   8 O      7.629303    1.911173    8.393834    ( 0.0000,  0.0000,  0.0000)
   9 O      2.458430    0.000000    8.393834    ( 0.0000,  0.0000,  0.0000)
  10 O      6.244323    0.000000    6.887921    ( 0.0000,  0.0000,  0.0000)
  11 O      1.073450    1.911173    6.887921    ( 0.0000,  0.0000,  0.0000)
  12 O      9.787358    1.908738    9.581233    ( 0.0000,  0.0000,  0.0000)
  13 O      4.611645   -0.000588    9.580420    ( 0.0000,  0.0000,  0.0000)
  14 Ti     2.761298    0.005704   10.361151    ( 0.0000,  0.0000,  0.0000)
  15 Ti     7.925717    1.896062   10.360638    ( 0.0000,  0.0000,  0.0000)
  16 Ti     0.497454    1.919929   11.160795    ( 0.0000,  0.0000,  0.0000)
  17 Ti     5.675534   11.453199   11.158866    ( 0.0000,  0.0000,  0.0000)
  18 O      0.913456    0.003703   11.091966    ( 0.0000,  0.0000,  0.0000)
  19 O      6.078455    1.897908   11.095875    ( 0.0000,  0.0000,  0.0000)
  20 O      9.030448    1.878945   11.968833    ( 0.0000,  0.0000,  0.0000)
  21 O      3.856519    0.022304   11.969044    ( 0.0000,  0.0000,  0.0000)
  22 O      7.550177   -0.015363   10.450442    ( 0.0000,  0.0000,  0.0000)
  23 O      2.399130    1.932666   10.478502    ( 0.0000,  0.0000,  0.0000)
  24 O      0.917496    1.920107   13.083336    ( 0.0000,  0.0000,  0.0000)
  25 O      6.084431   -0.018839   13.083395    ( 0.0000,  0.0000,  0.0000)
  26 Ti     4.209373    0.034098   13.975847    ( 0.0000,  0.0000,  0.0000)
  27 Ti     9.381911    1.863223   13.976358    ( 0.0000,  0.0000,  0.0000)
  28 Ti     1.850185    1.913485   14.658696    ( 0.0000,  0.0000,  0.0000)
  29 Ti     7.025578   11.454395   14.653476    ( 0.0000,  0.0000,  0.0000)
  30 O      2.384753    0.040509   14.857523    ( 0.0000,  0.0000,  0.0000)
  31 O      7.549374    1.865350   14.848595    ( 0.0000,  0.0000,  0.0000)
  32 O      0.194040    1.856183   15.474036    ( 0.0000,  0.0000,  0.0000)
  33 O      5.362490    0.049684   15.472327    ( 0.0000,  0.0000,  0.0000)
  34 O      8.967679   11.427231   13.989349    ( 0.0000,  0.0000,  0.0000)
  35 O      3.791153    1.962355   13.949877    ( 0.0000,  0.0000,  0.0000)
  36 O      8.476572    5.733518    6.000000    ( 0.0000,  0.0000,  0.0000)
  37 O      3.305699    3.822345    6.000000    ( 0.0000,  0.0000,  0.0000)
  38 Ti     1.412752    3.822345    6.752957    ( 0.0000,  0.0000,  0.0000)
  39 Ti     6.583625    5.733518    6.752957    ( 0.0000,  0.0000,  0.0000)
  40 Ti     9.522250    5.733518    7.640878    ( 0.0000,  0.0000,  0.0000)
  41 Ti     4.351376    3.822345    7.640878    ( 0.0000,  0.0000,  0.0000)
  42 O      9.861551    3.822345    7.505914    ( 0.0000,  0.0000,  0.0000)
  43 O      4.690678    5.733518    7.505914    ( 0.0000,  0.0000,  0.0000)
  44 O      7.629303    5.733518    8.393834    ( 0.0000,  0.0000,  0.0000)
  45 O      2.458430    3.822345    8.393834    ( 0.0000,  0.0000,  0.0000)
  46 O      6.244323    3.822345    6.887921    ( 0.0000,  0.0000,  0.0000)
  47 O      1.073450    5.733518    6.887921    ( 0.0000,  0.0000,  0.0000)
  48 O      9.806928    5.730034    9.595756    ( 0.0000,  0.0000,  0.0000)
  49 O      4.623070    3.829133    9.686371    ( 0.0000,  0.0000,  0.0000)
  50 Ti     2.772310    3.822345   10.298172    ( 0.0000,  0.0000,  0.0000)
  51 Ti     7.915308    5.703679   10.315327    ( 0.0000,  0.0000,  0.0000)
  52 Ti     0.538779    5.724331   11.184502    ( 0.0000,  0.0000,  0.0000)
  53 Ti     5.731914    3.814427   11.256228    ( 0.0000,  0.0000,  0.0000)
  54 O      0.916852    3.827700   11.105939    ( 0.0000,  0.0000,  0.0000)
  55 O      6.088345    5.741343   11.112890    ( 0.0000,  0.0000,  0.0000)
  56 O      9.019982    5.751367   11.929125    ( 0.0000,  0.0000,  0.0000)
  57 O      7.580540    3.811560   10.463331    ( 0.0000,  0.0000,  0.0000)
  58 O      2.401646    5.729174   10.486958    ( 0.0000,  0.0000,  0.0000)
  59 O      0.847971    5.662534   13.210184    ( 0.0000,  0.0000,  0.0000)
  60 O      5.995511    3.805166   13.181544    ( 0.0000,  0.0000,  0.0000)
  61 Ti     4.303270    3.805559   14.101788    ( 0.0000,  0.0000,  0.0000)
  62 Ti     9.277015    5.636174   13.810835    ( 0.0000,  0.0000,  0.0000)
  63 Ti     1.938809    5.676006   14.773850    ( 0.0000,  0.0000,  0.0000)
  64 Ti     7.087091    3.781756   14.995225    ( 0.0000,  0.0000,  0.0000)
  65 O      2.330843    3.789661   14.990435    ( 0.0000,  0.0000,  0.0000)
  66 O      7.483853    5.729187   14.648002    ( 0.0000,  0.0000,  0.0000)
  67 O     -0.119327    5.725078   15.606008    ( 0.0000,  0.0000,  0.0000)
  68 O      5.345327    3.816345   15.628896    ( 0.0000,  0.0000,  0.0000)
  69 O      8.987340    3.769158   13.958320    ( 0.0000,  0.0000,  0.0000)
  70 O      3.701720    5.667754   13.934798    ( 0.0000,  0.0000,  0.0000)
  71 O      8.476572    9.555862    6.000000    ( 0.0000,  0.0000,  0.0000)
  72 O      3.305699    7.644690    6.000000    ( 0.0000,  0.0000,  0.0000)
  73 Ti     1.412752    7.644690    6.752957    ( 0.0000,  0.0000,  0.0000)
  74 Ti     6.583625    9.555862    6.752957    ( 0.0000,  0.0000,  0.0000)
  75 Ti     9.522250    9.555862    7.640878    ( 0.0000,  0.0000,  0.0000)
  76 Ti     4.351376    7.644690    7.640878    ( 0.0000,  0.0000,  0.0000)
  77 O      9.861551    7.644690    7.505914    ( 0.0000,  0.0000,  0.0000)
  78 O      4.690678    9.555862    7.505914    ( 0.0000,  0.0000,  0.0000)
  79 O      7.629303    9.555862    8.393834    ( 0.0000,  0.0000,  0.0000)
  80 O      2.458430    7.644690    8.393834    ( 0.0000,  0.0000,  0.0000)
  81 O      6.244323    7.644690    6.887921    ( 0.0000,  0.0000,  0.0000)
  82 O      1.073450    9.555862    6.887921    ( 0.0000,  0.0000,  0.0000)
  83 O      9.810939    9.544984    9.616858    ( 0.0000,  0.0000,  0.0000)
  84 O      4.629232    7.645655    9.594022    ( 0.0000,  0.0000,  0.0000)
  85 Ti     2.749427    7.672579   10.312685    ( 0.0000,  0.0000,  0.0000)
  86 Ti     7.978951    9.553614   10.348774    ( 0.0000,  0.0000,  0.0000)
  87 Ti     0.511936    9.561318   11.286601    ( 0.0000,  0.0000,  0.0000)
  88 Ti     5.720221    7.654239   11.182398    ( 0.0000,  0.0000,  0.0000)
  89 O      0.922895    7.640256   11.110297    ( 0.0000,  0.0000,  0.0000)
  90 O      6.078433    9.549552   11.083932    ( 0.0000,  0.0000,  0.0000)
  91 O      9.027201    9.556517   12.001536    ( 0.0000,  0.0000,  0.0000)
  92 O      3.844523    7.628389   11.924829    ( 0.0000,  0.0000,  0.0000)
  93 O      7.553830    7.638905   10.459372    ( 0.0000,  0.0000,  0.0000)
  94 O      2.383390    9.563048   10.478520    ( 0.0000,  0.0000,  0.0000)
  95 O      0.905111    9.568083   13.225872    ( 0.0000,  0.0000,  0.0000)
  96 O      6.012752    7.708261   13.198421    ( 0.0000,  0.0000,  0.0000)
  97 Ti     4.102522    7.738397   13.799140    ( 0.0000,  0.0000,  0.0000)
  98 Ti     9.468686    9.568215   14.032901    ( 0.0000,  0.0000,  0.0000)
  99 Ti     1.918625    9.582974   15.018712    ( 0.0000,  0.0000,  0.0000)
 100 Ti     7.113090    7.707163   14.763689    ( 0.0000,  0.0000,  0.0000)
 101 O      2.312942    7.632541   14.642625    ( 0.0000,  0.0000,  0.0000)
 102 O      7.503936    9.585917   14.995184    ( 0.0000,  0.0000,  0.0000)
 103 O      0.176805    9.554584   15.617076    ( 0.0000,  0.0000,  0.0000)
 104 O      5.075802    7.657557   15.583811    ( 0.0000,  0.0000,  0.0000)
 105 O      8.873785    7.685999   13.974992    ( 0.0000,  0.0000,  0.0000)
 106 O      3.814218    9.601003   13.962844    ( 0.0000,  0.0000,  0.0000)
 107 V      3.781279    7.727374   16.866220    ( 0.0000,  0.0000,  0.0000)
 108 V      8.873003    5.643268   16.847198    ( 0.0000,  0.0000,  0.0000)
 109 O      7.769773    7.211029   16.715473    ( 0.0000,  0.0000,  0.0000)
 110 O      2.847534    9.176690   16.722083    ( 0.0000,  0.0000,  0.0000)
 111 O      9.517209    5.726125   18.291055    ( 0.0000,  0.0000,  0.0000)
 112 O      7.991007    4.157088   16.705689    ( 0.0000,  0.0000,  0.0000)
 113 O      4.496057    7.671067   18.279155    ( 0.0000,  0.0000,  0.0000)
 114 O      2.700400    6.146706   16.722463    ( 0.0000,  0.0000,  0.0000)
 115 H      2.702958    5.530531   17.473669    ( 0.0000,  0.0000,  0.0000)
 116 H      7.750534    7.820448   17.471716    ( 0.0000,  0.0000,  0.0000)

Unit cell:
           periodic     x           y           z      points  spacing
  1. axis:    yes   10.341746    0.000000    0.000000    54     0.1915
  2. axis:    yes   -0.000000   11.467000    0.000000    60     0.1911
  3. axis:    no     0.000000    0.000000   23.497201   125     0.1880

  Lengths:  10.341746  11.467000  23.497201
  Angles:   90.000000  90.000000  90.000000

Effective grid spacing dv^(1/3) = 0.1902

                     log10-error:    total        iterations:
           time      wfs    density  energy       fermi  poisson
iter:   1  15:51:41  -2.28   +inf  -875.332013    4             
iter:   2  15:52:19  -3.22  -2.84  -875.349161    3             
iter:   3  15:52:57  -3.71  -2.91  -875.357856    3             
iter:   4  15:53:35  -3.69  -3.01  -875.353589    2             
iter:   5  15:54:14  -3.95  -3.21  -875.337500    3             
iter:   6  15:54:52  -4.54  -3.37  -875.341365    3             
iter:   7  15:55:30  -5.06  -3.62  -875.345054    3             
iter:   8  15:56:08  -5.28  -3.71  -875.343523    3             
iter:   9  15:56:46  -5.56  -3.87  -875.343043    2             
iter:  10  15:57:24  -6.38  -3.95  -875.342927    2             
iter:  11  15:58:02  -5.44  -3.96  -875.343069    2             
iter:  12  15:58:40  -5.70  -4.06  -875.342820    2             
iter:  13  15:59:18  -6.52  -4.32  -875.343015    2             
iter:  14  15:59:56  -6.85  -4.40  -875.343056    2             
iter:  15  16:00:34  -6.74  -4.50  -875.342739    2             
iter:  16  16:01:12  -6.52  -4.66  -875.342649    2             
iter:  17  16:01:50  -7.43  -4.65  -875.342542    2             

Converged after 17 iterations.

Dipole moment: (6.957485, -5.351847, -0.823719) |e|*Ang

Energy contributions relative to reference atoms: (reference = -1044876.112776)

Kinetic:       +581.113169
Potential:     -793.350051
External:        +0.000000
XC:            -673.649068
Entropy (-ST):   -0.230819
Local:          +10.658818
--------------------------
Free energy:   -875.457951
Extrapolated:  -875.342542

Fermi level: 0.75640

Showing all kpts
 Kpt  Band  Eigenvalues  Occupancy
  0   459     -1.42330    1.00000
  0   460      0.59137    0.83894
  0   461      1.01855    0.06777
  0   462      1.07699    0.03894

  1   459     -1.42353    1.00000
  1   460      0.59147    0.83881
  1   461      1.01754    0.06841
  1   462      1.07668    0.03906



Forces in eV/Ang:
  0 O    -2.01688    0.01310    1.32618
  1 O    -1.99695    0.00738    1.32187
  2 Ti    3.70013   -0.01730    1.59118
  3 Ti    3.77442   -0.10344    1.56040
  4 Ti   -1.84429   -0.06157   -1.82527
  5 Ti   -1.83739   -0.06519   -1.82159
  6 O     0.91352   -0.02015   -0.19621
  7 O     0.86373    0.21387   -0.11617
  8 O    -0.72288    0.01315   -0.50157
  9 O    -0.72238    0.03201   -0.49401
 10 O    -0.29746    0.01470   -0.90283
 11 O    -0.25926    0.09867   -0.89659
 12 O     0.06490    0.02921    0.23561
 13 O     0.09246   -0.01641    0.24638
 14 Ti    0.12498    0.00658    0.05207
 15 Ti    0.24418   -0.18397   -0.04271
 16 Ti    0.02578   -0.06377    0.05806
 17 Ti   -0.12352   -0.03475    0.01518
 18 O     0.02110    0.04314   -0.04313
 19 O     0.11467    0.03793   -0.06761
 20 O    -0.06224   -0.02285   -0.11341
 21 O     0.02020   -0.02493   -0.10658
 22 O     0.05628    0.09409    0.02167
 23 O     0.10109   -0.17000    0.24671
 24 O     0.04883   -0.00347    0.38422
 25 O     0.11508   -0.01665    0.33130
 26 Ti    0.05439   -0.00112    0.14506
 27 Ti    0.13027    0.08809    0.19556
 28 Ti   -0.28866   -0.01970    0.05921
 29 Ti   -0.38884    0.02616    0.13703
 30 O     0.08862    0.00476    0.14274
 31 O     0.00400    0.10194    0.09678
 32 O     0.08844    0.02261   -0.19831
 33 O     0.13453    0.00919   -0.23666
 34 O    -0.06907    0.07349    0.13638
 35 O    -0.11749   -0.09537   -0.11114
 36 O    -2.02814   -0.00230    1.38014
 37 O    -1.74870    0.01072    1.41274
 38 Ti    3.46180   -0.06716    1.46086
 39 Ti    3.59272    0.03297    1.34853
 40 Ti   -1.56675    0.00708   -1.69672
 41 Ti   -1.78437   -0.06222   -1.27446
 42 O     0.93079    0.06821   -0.20641
 43 O     0.88409   -0.13624   -0.12454
 44 O    -0.68478   -0.02862   -0.60342
 45 O    -0.45270    0.02979   -0.93691
 46 O    -0.36604    0.08657   -0.87181
 47 O    -0.27616   -0.00920   -0.88786
 48 O     0.02461   -0.01711    0.11274
 49 O    -0.15528   -0.00214   -0.08501
 50 Ti   -0.18100    0.00878   -0.02612
 51 Ti    0.20600    0.30074   -0.07293
 52 Ti    0.06964    0.06230    0.07842
 53 Ti    0.10539   -0.01715    0.02107
 54 O     0.01978    0.02760    0.00824
 55 O     0.12672   -0.08313   -0.03840
 56 O    -0.03735   -0.02414    0.08149
 57 O     0.06644    0.08635    0.08584
 58 O     0.10330    0.05836    0.25649
 59 O     0.03735   -0.00994    0.19448
 60 O    -0.18004   -0.02386    0.19606
 61 Ti   -0.16764    0.05574    0.32487
 62 Ti   -0.05057    0.17021    0.01806
 63 Ti   -0.08562    0.07282   -0.02397
 64 Ti   -0.02985   -0.03266   -0.16051
 65 O     0.03863    0.29094    0.02916
 66 O    -0.00089    0.07753    0.03759
 67 O     0.27068   -0.03681   -0.07585
 68 O     0.25872    0.01317    0.06199
 69 O    -0.32835    0.33934    0.09562
 70 O    -0.22198    0.15460    0.04441
 71 O    -1.96057   -0.01231    1.34371
 72 O    -2.01653   -0.01850    1.37438
 73 Ti    3.51220    0.08939    1.36854
 74 Ti    3.71249    0.06509    1.58514
 75 Ti   -1.75407    0.06295   -1.40350
 76 Ti   -1.54141    0.12114   -1.68924
 77 O     0.93592   -0.06882   -0.20636
 78 O     0.89773   -0.06981   -0.20705
 79 O    -0.58636   -0.02978   -0.56543
 80 O    -0.70040   -0.02495   -0.61714
 81 O    -0.31593   -0.10052   -0.90055
 82 O    -0.27245   -0.09054   -0.90161
 83 O    -0.05330    0.00515    0.07555
 84 O     0.05951    0.00517    0.12247
 85 Ti    0.06978   -0.06609    0.01000
 86 Ti    0.17409    0.00383    0.15398
 87 Ti   -0.05665    0.01445    0.07346
 88 Ti   -0.09225    0.03179    0.00821
 89 O     0.03203   -0.01265   -0.00797
 90 O     0.10287   -0.04779   -0.05418
 91 O     0.04403   -0.01440   -0.09027
 92 O     0.04477    0.06711    0.10067
 93 O     0.07313   -0.00426    0.05503
 94 O     0.02233   -0.09183    0.13012
 95 O     0.03049    0.03783    0.02512
 96 O     0.13633    0.00623    0.19197
 97 Ti   -0.14228   -0.16462   -0.01986
 98 Ti    0.05120   -0.05111    0.06509
 99 Ti   -0.26539    0.06889   -0.11255
100 Ti   -0.12701   -0.05495    0.03638
101 O     0.08390   -0.18003    0.12510
102 O     0.06845   -0.33138   -0.06498
103 O     0.10925   -0.01340   -0.32471
104 O     0.21774   -0.00907   -0.08050
105 O    -0.10616   -0.23429    0.20134
106 O    -0.22430   -0.33359    0.09018
107 V     0.01113   -0.06938   -0.19478
108 V     0.14543    0.03651   -0.11102
109 O     0.07027   -0.12121   -0.13083
110 O     0.03495    0.09348   -0.08497
111 O     0.11216   -0.01061    0.16798
112 O    -0.03256   -0.05525   -0.12872
113 O     0.01305    0.00838    0.18973
114 O    -0.06838    0.15175   -0.14736
115 H    -0.00288   -0.21122    0.10858
116 H    -0.00598    0.19407    0.13304

System changes: positions 

Initializing position-dependent things.

Density initialized from wave functions
                                                
                                                
                                                
                                                
                                                
                                                
                       O                        
                    O          H  O             
              O       V        OTi              
                  Hi            OV   O          
                       O O    Oi     Ti         
           O    O O               O             
                Ti    TO   O Oi                 
         O      O   O      Ti     TiO           
             TiTi   TiO    OO   O               
             O O  OO O  O Ti   TiOi             
[...]
  87 Ti     0.527473    9.553131   11.328625    ( 0.0000,  0.0000,  0.0000)
  88 Ti     5.725513    7.648759   11.277619    ( 0.0000,  0.0000,  0.0000)
  89 O      0.947983    7.631778   11.155775    ( 0.0000,  0.0000,  0.0000)
  90 O      6.098661    9.547089   11.130940    ( 0.0000,  0.0000,  0.0000)
  91 O      9.041463    9.538077   12.029041    ( 0.0000,  0.0000,  0.0000)
  92 O      3.862458    7.623869   12.000175    ( 0.0000,  0.0000,  0.0000)
  93 O      7.566339    7.633088   10.514054    ( 0.0000,  0.0000,  0.0000)
  94 O      2.419769    9.547161   10.520140    ( 0.0000,  0.0000,  0.0000)
  95 O      0.899045    9.590372   13.266561    ( 0.0000,  0.0000,  0.0000)
  96 O      6.017095    7.667765   13.307377    ( 0.0000,  0.0000,  0.0000)
  97 Ti     4.098260    7.676336   13.887092    ( 0.0000,  0.0000,  0.0000)
  98 Ti     9.442217    9.553585   14.063153    ( 0.0000,  0.0000,  0.0000)
  99 Ti     1.887222    9.571185   15.075657    ( 0.0000,  0.0000,  0.0000)
 100 Ti     7.049867    7.675250   14.932266    ( 0.0000,  0.0000,  0.0000)
 101 O      2.276557    7.636192   14.731454    ( 0.0000,  0.0000,  0.0000)
 102 O      7.502049    9.560983   15.032808    ( 0.0000,  0.0000,  0.0000)
 103 O      0.134736    9.525811   15.634027    ( 0.0000,  0.0000,  0.0000)
 104 O      5.119092    7.650163   15.694052    ( 0.0000,  0.0000,  0.0000)
 105 O      8.877524    7.660109   14.084850    ( 0.0000,  0.0000,  0.0000)
 106 O      3.776555    9.562461   14.076843    ( 0.0000,  0.0000,  0.0000)
 107 V      3.783958    7.762564   16.987038    ( 0.0000,  0.0000,  0.0000)
 108 V      9.005292    5.759650   17.051745    ( 0.0000,  0.0000,  0.0000)
 109 O      7.869232    7.316778   16.861454    ( 0.0000,  0.0000,  0.0000)
 110 O      2.838234    9.197388   16.768576    ( 0.0000,  0.0000,  0.0000)
 111 O      9.779061    5.913667   18.430602    ( 0.0000,  0.0000,  0.0000)
 112 O      8.040799    4.222123   16.990324    ( 0.0000,  0.0000,  0.0000)
 113 O      4.438330    7.765855   18.434395    ( 0.0000,  0.0000,  0.0000)
 114 O      2.671469    6.181875   16.872007    ( 0.0000,  0.0000,  0.0000)
 115 H      2.429601    5.708046   17.689480    ( 0.0000,  0.0000,  0.0000)
 116 H      7.976485    8.047358   17.500064    ( 0.0000,  0.0000,  0.0000)

Unit cell:
           periodic     x           y           z      points  spacing
  1. axis:    yes   10.341746    0.000000    0.000000    54     0.1915
  2. axis:    yes   -0.000000   11.467000    0.000000    60     0.1911
  3. axis:    no     0.000000    0.000000   23.497201   125     0.1880

  Lengths:  10.341746  11.467000  23.497201
  Angles:   90.000000  90.000000  90.000000

Effective grid spacing dv^(1/3) = 0.1902

                     log10-error:    total        iterations:
           time      wfs    density  energy       fermi  poisson
iter:   1  16:29:54  -5.12   +inf  -876.367926    2             
iter:   2  16:30:32  -6.07  -4.23  -876.367495    3             
iter:   3  16:31:10  -6.69  -4.30  -876.367551    2             
iter:   4  16:31:48  -6.83  -4.32  -876.367560    2             
iter:   5  16:32:26  -6.61  -4.43  -876.367598    2             
iter:   6  16:33:04  -7.03  -4.56  -876.367501    2             
iter:   7  16:33:42  -7.57  -4.73  -876.367525    2             

Converged after 7 iterations.

Dipole moment: (8.643043, 2.927552, -0.558586) |e|*Ang

Energy contributions relative to reference atoms: (reference = -1044876.112776)

Kinetic:       +565.197424
Potential:     -780.307679
External:        +0.000000
XC:            -671.627878
Entropy (-ST):   -0.522386
Local:          +10.631801
--------------------------
Free energy:   -876.628718
Extrapolated:  -876.367525

Fermi level: 0.97024

Showing all kpts
 Kpt  Band  Eigenvalues  Occupancy
  0   459     -1.31455    1.00000
  0   460      1.04236    0.32714
  0   461      1.06812    0.27314
  0   462      1.12383    0.17713

  1   459     -1.31454    1.00000
  1   460      1.04291    0.32591
  1   461      1.06518    0.27901
  1   462      1.12408    0.17676



Forces in eV/Ang:
  0 O    -1.82746    0.01574    1.43009
  1 O    -1.76431    0.01021    1.43661
  2 Ti    3.54908   -0.03024    1.47586
  3 Ti    3.66247   -0.09862    1.44883
  4 Ti   -1.80658   -0.08320   -1.80167
  5 Ti   -1.83723   -0.02759   -1.74787
  6 O     0.82478    0.03119   -0.07085
  7 O     0.80620    0.15037   -0.03751
  8 O    -0.47730   -0.00591   -0.00464
  9 O    -0.36606   -0.00166   -0.02302
 10 O    -0.34780    0.01467   -0.88943
 11 O    -0.32197    0.05991   -0.86534
 12 O    -0.00288    0.00535    0.00303
 13 O    -0.00206    0.00041   -0.00439
 14 Ti   -0.00294    0.01340    0.00036
 15 Ti    0.00898    0.00276    0.00508
 16 Ti   -0.00955   -0.00083    0.00337
 17 Ti    0.01068    0.00205    0.00555
 18 O    -0.00047   -0.00341   -0.00038
 19 O    -0.00450   -0.00778    0.00372
 20 O     0.00041    0.00292    0.00177
 21 O    -0.00244   -0.00354    0.00246
 22 O    -0.00080    0.00923    0.00159
 23 O     0.00362   -0.01003   -0.00346
 24 O    -0.00135   -0.00388    0.00866
 25 O    -0.00699   -0.00469   -0.02291
 26 Ti   -0.00258   -0.00908   -0.00002
 27 Ti   -0.00230   -0.01095   -0.01000
 28 Ti   -0.00113   -0.02147    0.00429
 29 Ti    0.00393    0.00177    0.00981
 30 O    -0.00762    0.01348    0.00540
 31 O    -0.00462   -0.00550   -0.00607
 32 O     0.00444    0.00465    0.00747
 33 O    -0.00292   -0.00252    0.00314
 34 O    -0.00249    0.00349    0.00077
 35 O    -0.00253    0.00337    0.00666
 36 O    -1.81246   -0.00759    1.48993
 37 O    -1.74818    0.00897    1.55503
 38 Ti    3.25538   -0.04140    1.14145
 39 Ti    3.49080    0.05563    1.23886
 40 Ti   -1.54875    0.03614   -1.72911
 41 Ti   -1.70166   -0.04549   -2.71342
 42 O     0.84940    0.05845   -0.04943
 43 O     0.81708   -0.09755   -0.03988
 44 O    -0.47276    0.00583    0.02885
 45 O    -0.32308    0.00462    0.38134
 46 O    -0.39548    0.04500   -0.76855
 47 O    -0.33920   -0.01312   -0.78478
 48 O    -0.00150   -0.00361    0.00226
 49 O    -0.00238    0.00025   -0.00142
 50 Ti    0.00856   -0.00514   -0.00480
 51 Ti    0.00404    0.00020    0.00566
 52 Ti   -0.00420   -0.00852   -0.00719
 53 Ti   -0.01674   -0.00661    0.00262
 54 O    -0.01308    0.00031    0.00200
 55 O     0.00040    0.01925    0.00193
 56 O    -0.00511   -0.00609    0.00782
 57 O     0.01440    0.00225   -0.00567
 58 O     0.00188    0.01638   -0.00353
 59 O     0.00943   -0.00317    0.01617
 60 O     0.00757   -0.00162    0.00989
 61 Ti   -0.00345   -0.00271    0.00535
 62 Ti   -0.01184   -0.01185    0.00593
 63 Ti    0.00478    0.00928   -0.00072
 64 Ti   -0.00297    0.01237   -0.00970
 65 O     0.00593    0.01006    0.00591
 66 O     0.00556   -0.00305   -0.00378
 67 O     0.00302   -0.00523    0.00681
 68 O    -0.00681    0.00294    0.01262
 69 O    -0.00710    0.01260   -0.00257
 70 O    -0.01080   -0.00203    0.00512
 71 O    -1.84222   -0.00959    1.40636
 72 O    -1.75743   -0.01962    1.49511
 73 Ti    3.37749    0.06863    1.25937
 74 Ti    3.66404    0.04026    1.48531
 75 Ti   -1.72922    0.04749   -1.45016
 76 Ti   -1.57333    0.07125   -1.67203
 77 O     0.83497   -0.10310   -0.07000
 78 O     0.79544   -0.06319   -0.00459
 79 O    -0.45610   -0.02150   -0.12835
 80 O    -0.39474   -0.03256   -0.00169
 81 O    -0.36750   -0.05843   -0.80812
 82 O    -0.31864   -0.04661   -0.83240
 83 O    -0.00475   -0.00071   -0.00116
 84 O     0.00179   -0.00080   -0.00540
 85 Ti   -0.01828   -0.00382   -0.00561
 86 Ti    0.00579    0.00807   -0.00342
 87 Ti    0.01711    0.00037   -0.00786
 88 Ti    0.01906   -0.00261   -0.00337
 89 O     0.00765    0.00704    0.00064
 90 O    -0.00216    0.00171    0.00256
 91 O    -0.01142    0.00329    0.00174
 92 O    -0.00449    0.00368    0.00625
 93 O    -0.00288   -0.01044    0.00329
 94 O    -0.01043   -0.01011    0.00526
 95 O     0.00837    0.00490    0.00094
 96 O     0.00455    0.00062    0.00093
 97 Ti   -0.00604    0.00434   -0.00209
 98 Ti   -0.00460    0.00594    0.00845
 99 Ti   -0.00224   -0.00177    0.00262
100 Ti   -0.00333    0.00296    0.00440
101 O     0.00002   -0.00613    0.00382
102 O     0.00075   -0.00354   -0.00044
103 O     0.00124    0.00154    0.00655
104 O     0.00495   -0.00098    0.00581
105 O    -0.00383   -0.00890   -0.00207
106 O    -0.00524   -0.00664   -0.00420
107 V    -0.01032    0.01108   -0.01831
108 V     0.00614   -0.02907   -0.01542
109 O    -0.01716    0.03810    0.00554
110 O     0.00426   -0.00514    0.00245
111 O     0.00143   -0.00679    0.01312
112 O     0.00381    0.00680   -0.00115
113 O     0.00860   -0.00030    0.00770
114 O     0.00888    0.02701   -0.05767
115 H     0.01259   -0.02381    0.00844
116 H    -0.00803   -0.02755   -0.00326

System changes: positions 

Initializing position-dependent things.

Density initialized from wave functions
                                                
                                                
                                                
                                                
                                                
                                                
                       O                        
                    O           H  O            
              O  H    V        OTi              
                  Oi            OV   O          
                       O O   TO      Ti         
           O    O O               O             
                Ti    Ti   OTii                 
         O     O    O  O          TiO           
             TiTi   TiO    OO   O               
             O O  OOO     Ti   TiOi             
           OTi    TiO     O    O     O          
                 O      O      Ti               
            O     O   O Ti  O  O   O Ti         
          Ti    TO   O TO     Ti    O           
          O   O Ti          TiO   O             
              TiO   O O   O      OTi            
                   OTi     Oi     O             
             Oi     O    O      Ti              
           O      Ti     Ti    O                
           Ti          O     O                  
               O                                
                                                
                                                
                                                
                                                

Positions:
   0 O      8.476572    1.911173    6.000000    ( 0.0000,  0.0000,  0.0000)
   1 O      3.305699    0.000000    6.000000    ( 0.0000,  0.0000,  0.0000)
   2 Ti     1.412752    0.000000    6.752957    ( 0.0000,  0.0000,  0.0000)
   3 Ti     6.583625    1.911173    6.752957    ( 0.0000,  0.0000,  0.0000)
   4 Ti     9.522250    1.911173    7.640878    ( 0.0000,  0.0000,  0.0000)
   5 Ti     4.351376    0.000000    7.640878    ( 0.0000,  0.0000,  0.0000)
   6 O      9.861551    0.000000    7.505914    ( 0.0000,  0.0000,  0.0000)
   7 O      4.690678    1.911173    7.505914    ( 0.0000,  0.0000,  0.0000)
   8 O      7.629303    1.911173    8.393834    ( 0.0000,  0.0000,  0.0000)
   9 O      2.458430    0.000000    8.393834    ( 0.0000,  0.0000,  0.0000)
  10 O      6.244323    0.000000    6.887921    ( 0.0000,  0.0000,  0.0000)
  11 O      1.073450    1.911173    6.887921    ( 0.0000,  0.0000,  0.0000)
  12 O      9.818447    1.910946    9.630453    ( 0.0000,  0.0000,  0.0000)
  13 O      4.653481    0.029187    9.632650    ( 0.0000,  0.0000,  0.0000)
  14 Ti     2.806078   -0.016886   10.368910    ( 0.0000,  0.0000,  0.0000)
  15 Ti     7.986559    1.886492   10.374745    ( 0.0000,  0.0000,  0.0000)
  16 Ti     0.521927    1.883985   11.233901    ( 0.0000,  0.0000,  0.0000)
  17 Ti     5.681610   11.457032   11.249216    ( 0.0000,  0.0000,  0.0000)
  18 O      0.939943   -0.003055   11.112243    ( 0.0000,  0.0000,  0.0000)
  19 O      6.145572    1.944320   11.247820    ( 0.0000,  0.0000,  0.0000)
  20 O      9.058246    1.898940   12.026246    ( 0.0000,  0.0000,  0.0000)
  21 O      3.880931    0.001580   12.026821    ( 0.0000,  0.0000,  0.0000)
  22 O      7.567801    0.000710   10.508357    ( 0.0000,  0.0000,  0.0000)
  23 O      2.433873    1.918202   10.524874    ( 0.0000,  0.0000,  0.0000)
  24 O      0.915483    1.892558   13.195381    ( 0.0000,  0.0000,  0.0000)
  25 O      6.087317   -0.012577   13.202566    ( 0.0000,  0.0000,  0.0000)
  26 Ti     4.196355   -0.013194   14.079676    ( 0.0000,  0.0000,  0.0000)
  27 Ti     9.384264    1.840347   14.062397    ( 0.0000,  0.0000,  0.0000)
  28 Ti     1.820275    1.863358   14.791012    ( 0.0000,  0.0000,  0.0000)
  29 Ti     7.009893   11.439563   14.783024    ( 0.0000,  0.0000,  0.0000)
  30 O      2.372158    0.014098   15.017958    ( 0.0000,  0.0000,  0.0000)
  31 O      7.621630    1.840065   15.065441    ( 0.0000,  0.0000,  0.0000)
  32 O      0.162537    1.866921   15.581709    ( 0.0000,  0.0000,  0.0000)
  33 O      5.351487    0.012826   15.578688    ( 0.0000,  0.0000,  0.0000)
  34 O      8.959530   11.430722   14.085965    ( 0.0000,  0.0000,  0.0000)
  35 O      3.728751    1.897895   14.095709    ( 0.0000,  0.0000,  0.0000)
  36 O      8.476572    5.733518    6.000000    ( 0.0000,  0.0000,  0.0000)
  37 O      3.305699    3.822345    6.000000    ( 0.0000,  0.0000,  0.0000)
  38 Ti     1.412752    3.822345    6.752957    ( 0.0000,  0.0000,  0.0000)
  39 Ti     6.583625    5.733518    6.752957    ( 0.0000,  0.0000,  0.0000)
  40 Ti     9.522250    5.733518    7.640878    ( 0.0000,  0.0000,  0.0000)
  41 Ti     4.351376    3.822345    7.640878    ( 0.0000,  0.0000,  0.0000)
  42 O      9.861551    3.822345    7.505914    ( 0.0000,  0.0000,  0.0000)
  43 O      4.690678    5.733518    7.505914    ( 0.0000,  0.0000,  0.0000)
  44 O      7.629303    5.733518    8.393834    ( 0.0000,  0.0000,  0.0000)
  45 O      2.458430    3.822345    8.393834    ( 0.0000,  0.0000,  0.0000)
  46 O      6.244323    3.822345    6.887921    ( 0.0000,  0.0000,  0.0000)
  47 O      1.073450    5.733518    6.887921    ( 0.0000,  0.0000,  0.0000)
  48 O      9.827700    5.732716    9.649662    ( 0.0000,  0.0000,  0.0000)
  49 O      4.647241    3.824817    9.601555    ( 0.0000,  0.0000,  0.0000)
  50 Ti     2.749026    3.809783   10.333317    ( 0.0000,  0.0000,  0.0000)
  51 Ti     7.980468    5.741796   10.327371    ( 0.0000,  0.0000,  0.0000)
  52 Ti     0.558787    5.743318   11.272772    ( 0.0000,  0.0000,  0.0000)
  53 Ti     5.713901    3.820112   11.069127    ( 0.0000,  0.0000,  0.0000)
  54 O      0.957008    3.816999   11.131667    ( 0.0000,  0.0000,  0.0000)
  55 O      6.152156    5.697399   11.259748    ( 0.0000,  0.0000,  0.0000)
  56 O      9.033560    5.727983   12.007232    ( 0.0000,  0.0000,  0.0000)
  57 O      7.597326    3.820452   10.479507    ( 0.0000,  0.0000,  0.0000)
  58 O      2.425283    5.719006   10.532561    ( 0.0000,  0.0000,  0.0000)
  59 O      0.840712    5.669816   13.297330    ( 0.0000,  0.0000,  0.0000)
  60 O      4.058973    3.822997   12.077569    ( 0.0000,  0.0000,  0.0000)
  61 Ti     3.998766    3.812556   13.999791    ( 0.0000,  0.0000,  0.0000)
  62 Ti     9.290046    5.758490   13.896604    ( 0.0000,  0.0000,  0.0000)
  63 Ti     1.840254    5.755397   14.945757    ( 0.0000,  0.0000,  0.0000)
  64 Ti     7.405005    3.784741   15.304047    ( 0.0000,  0.0000,  0.0000)
  65 O      2.310337    3.792233   15.044851    ( 0.0000,  0.0000,  0.0000)
  66 O      7.532683    5.741044   14.844468    ( 0.0000,  0.0000,  0.0000)
  67 O     -0.035516    5.752938   15.703249    ( 0.0000,  0.0000,  0.0000)
  68 O      5.606628    3.814072   14.821002    ( 0.0000,  0.0000,  0.0000)
  69 O      8.926015    3.794405   14.107180    ( 0.0000,  0.0000,  0.0000)
  70 O      3.647906    5.726292   14.106426    ( 0.0000,  0.0000,  0.0000)
  71 O      8.476572    9.555862    6.000000    ( 0.0000,  0.0000,  0.0000)
  72 O      3.305699    7.644690    6.000000    ( 0.0000,  0.0000,  0.0000)
  73 Ti     1.412752    7.644690    6.752957    ( 0.0000,  0.0000,  0.0000)
  74 Ti     6.583625    9.555862    6.752957    ( 0.0000,  0.0000,  0.0000)
  75 Ti     9.522250    9.555862    7.640878    ( 0.0000,  0.0000,  0.0000)
  76 Ti     4.351376    7.644690    7.640878    ( 0.0000,  0.0000,  0.0000)
  77 O      9.861551    7.644690    7.505914    ( 0.0000,  0.0000,  0.0000)
  78 O      4.690678    9.555862    7.505914    ( 0.0000,  0.0000,  0.0000)
  79 O      7.629303    9.555862    8.393834    ( 0.0000,  0.0000,  0.0000)
  80 O      2.458430    7.644690    8.393834    ( 0.0000,  0.0000,  0.0000)
  81 O      6.244323    7.644690    6.887921    ( 0.0000,  0.0000,  0.0000)
  82 O      1.073450    9.555862    6.887921    ( 0.0000,  0.0000,  0.0000)
  83 O      9.816250    9.546124    9.646047    ( 0.0000,  0.0000,  0.0000)
  84 O      4.659124    7.604817    9.649640    ( 0.0000,  0.0000,  0.0000)
  85 Ti     2.794122    7.657038   10.322971    ( 0.0000,  0.0000,  0.0000)
  86 Ti     7.998692    9.558928   10.360688    ( 0.0000,  0.0000,  0.0000)
  87 Ti     0.527551    9.553125   11.328623    ( 0.0000,  0.0000,  0.0000)
  88 Ti     5.725506    7.648792   11.277618    ( 0.0000,  0.0000,  0.0000)
  89 O      0.948016    7.631756   11.155742    ( 0.0000,  0.0000,  0.0000)
  90 O      6.098614    9.547050   11.130940    ( 0.0000,  0.0000,  0.0000)
  91 O      9.041511    9.538095   12.029190    ( 0.0000,  0.0000,  0.0000)
  92 O      3.862324    7.623864   12.000077    ( 0.0000,  0.0000,  0.0000)
  93 O      7.566217    7.633079   10.514089    ( 0.0000,  0.0000,  0.0000)
  94 O      2.419823    9.547221   10.520164    ( 0.0000,  0.0000,  0.0000)
  95 O      0.899030    9.590316   13.266514    ( 0.0000,  0.0000,  0.0000)
  96 O      6.017000    7.667793   13.307266    ( 0.0000,  0.0000,  0.0000)
  97 Ti     4.098269    7.676390   13.887209    ( 0.0000,  0.0000,  0.0000)
  98 Ti     9.442198    9.553567   14.063169    ( 0.0000,  0.0000,  0.0000)
  99 Ti     1.887145    9.571217   15.075744    ( 0.0000,  0.0000,  0.0000)
 100 Ti     7.049860    7.675193   14.932327    ( 0.0000,  0.0000,  0.0000)
 101 O      2.276654    7.636143   14.731546    ( 0.0000,  0.0000,  0.0000)
 102 O      7.502132    9.560965   15.032654    ( 0.0000,  0.0000,  0.0000)
 103 O      0.134685    9.525807   15.633946    ( 0.0000,  0.0000,  0.0000)
 104 O      5.119109    7.650224   15.694034    ( 0.0000,  0.0000,  0.0000)
 105 O      8.877498    7.659942   14.084846    ( 0.0000,  0.0000,  0.0000)
 106 O      3.776413    9.562399   14.076774    ( 0.0000,  0.0000,  0.0000)
 107 V      3.783886    7.762445   16.987146    ( 0.0000,  0.0000,  0.0000)
 108 V      9.005477    5.759714   17.051555    ( 0.0000,  0.0000,  0.0000)
 109 O      7.869031    7.316939   16.861602    ( 0.0000,  0.0000,  0.0000)
 110 O      2.838286    9.197233   16.768610    ( 0.0000,  0.0000,  0.0000)
 111 O      9.779040    5.913610   18.430654    ( 0.0000,  0.0000,  0.0000)
 112 O      8.040788    4.222105   16.990389    ( 0.0000,  0.0000,  0.0000)
 113 O      4.438189    7.765690   18.434408    ( 0.0000,  0.0000,  0.0000)
 114 O      2.671232    6.181820   16.872085    ( 0.0000,  0.0000,  0.0000)
 115 H      2.429767    5.707680   17.689733    ( 0.0000,  0.0000,  0.0000)
 116 H      7.976301    8.047258   17.500071    ( 0.0000,  0.0000,  0.0000)

Unit cell:
           periodic     x           y           z      points  spacing
  1. axis:    yes   10.341746    0.000000    0.000000    54     0.1915
  2. axis:    yes   -0.000000   11.467000    0.000000    60     0.1911
  3. axis:    no     0.000000    0.000000   23.497201   125     0.1880

  Lengths:  10.341746  11.467000  23.497201
  Angles:   90.000000  90.000000  90.000000

Effective grid spacing dv^(1/3) = 0.1902

                     log10-error:    total        iterations:
           time      wfs    density  energy       fermi  poisson
iter:   1  16:34:44  -5.81   +inf  -876.367759    2             
slurmstepd: error: *** JOB 2698746 ON s74n52 CANCELLED AT 2019-07-03T16:35:04 ***
