
  ___ ___ ___ _ _ _  
 |   |   |_  | | | | 
 | | | | | . | | | | 
 |__ |  _|___|_____|  1.5.1
 |___|_|             

User:   siva@s92n12.grendel.cscaa.dk
Date:   Mon Mar  2 12:55:35 2020
Arch:   x86_64
Pid:    343447
Python: 3.6.3
gpaw:   /home/siva/gpaw-1.5.1/gpaw
_gpaw:  /home/siva/gpaw-1.5.1/build/bin.linux-x86_64-3.6/gpaw-python
ase:    /home/siva/env1.5/lib/python3.6/site-packages/ase (version 3.17.0)
numpy:  /home/siva/env1.5/lib/python3.6/site-packages/numpy (version 1.16.0)
scipy:  /home/siva/env1.5/lib/python3.6/site-packages/scipy (version 1.2.0)
units:  Angstrom and eV
cores:  16
Extra parameters: {'blacs': True}

Input parameters:
  basis: dzp
  kpts: [2 2 1]
  mode: {ecut: 500.0,
         gammacentered: False,
         name: pw}
  xc: PBE

System changes: positions, numbers, cell, pbc, initial_charges, initial_magmoms 

Initialize ...

O-setup:
  name: Oxygen
  id: 32ecd46bf208036f09c70b0ec9a88b78
  Z: 8
  valence: 6
  core: 2
  charge: 0.0
  file: /home/wido/sw/gpaw/basis/gpaw-setups-0.9.20000/O.PBE.gz
  cutoffs: 0.67(comp), 1.17(filt), 0.83(core), lmax=2
  valence states:
                energy  radius
    2s(2.00)   -23.961   0.688
    2p(4.00)    -9.029   0.598
    *s           3.251   0.688
    *p          18.182   0.598
    *d           0.000   0.619

  LCAO basis set for O:
    Name: dzp
    File: /home/wido/sw/gpaw/basis/gpaw-setups-0.9.20000/O.dzp.basis.gz
    Number of radial functions: 5
    Number of spherical harmonics: 13
      l=0, rc=4.3438 Bohr: 2s-sz confined orbital
      l=1, rc=5.3906 Bohr: 2p-sz confined orbital
      l=0, rc=2.2969 Bohr: 2s-dz split-valence wave
      l=1, rc=2.8906 Bohr: 2p-dz split-valence wave
      l=2, rc=5.3906 Bohr: d-type Gaussian polarization

Ti-setup:
  name: Titanium
  id: d282db07e62ae71292040bf25b25ccdd
  Z: 22
  valence: 12
  core: 10
  charge: 0.0
  file: /home/wido/sw/gpaw/basis/gpaw-setups-0.9.20000/Ti.PBE.gz
  cutoffs: 1.22(comp), 2.23(filt), 1.02(core), lmax=2
  valence states:
                energy  radius
    3s(2.00)   -62.623   1.270
    4s(2.00)    -4.466   1.270
    3p(6.00)   -38.862   1.058
    4p(0.00)    -1.466   1.058
    3d(2.00)    -4.258   1.058
    *d          22.953   1.058

  LCAO basis set for Ti:
    Name: dzp
    File: /home/wido/sw/gpaw/basis/gpaw-setups-0.9.20000/Ti.dzp.basis.gz
    Number of radial functions: 11
    Number of spherical harmonics: 29
      l=0, rc=3.4375 Bohr: 3s-sz confined orbital
      l=0, rc=9.9062 Bohr: 4s-sz confined orbital
      l=1, rc=3.8906 Bohr: 3p-sz confined orbital
      l=1, rc=13.1094 Bohr: 4p-sz confined orbital
      l=2, rc=6.6250 Bohr: 3d-sz confined orbital
      l=0, rc=2.1406 Bohr: 3s-dz split-valence wave
      l=0, rc=6.0156 Bohr: 4s-dz split-valence wave
      l=1, rc=2.3125 Bohr: 3p-dz split-valence wave
      l=1, rc=8.1094 Bohr: 4p-dz split-valence wave
      l=2, rc=3.8594 Bohr: 3d-dz split-valence wave
      l=1, rc=9.9062 Bohr: p-type Gaussian polarization

V-setup:
  name: Vanadium
  id: a8354638d66c808f8c867a10b63fd727
  Z: 23
  valence: 13
  core: 10
  charge: 0.0
  file: /home/wido/sw/gpaw/basis/gpaw-setups-0.9.20000/V.PBE.gz
  cutoffs: 1.19(comp), 2.14(filt), 0.96(core), lmax=2
  valence states:
                energy  radius
    3s(2.00)   -70.222   1.254
    4s(2.00)    -4.702   1.254
    3p(6.00)   -44.043   1.281
    4p(0.00)    -1.444   1.281
    3d(3.00)    -5.164   1.169
    *d          22.047   1.169

  LCAO basis set for V:
    Name: dzp
    File: /home/wido/sw/gpaw/basis/gpaw-setups-0.9.20000/V.dzp.basis.gz
    Number of radial functions: 11
    Number of spherical harmonics: 29
      l=0, rc=3.2656 Bohr: 3s-sz confined orbital
      l=0, rc=9.5312 Bohr: 4s-sz confined orbital
      l=1, rc=3.6719 Bohr: 3p-sz confined orbital
      l=1, rc=12.8750 Bohr: 4p-sz confined orbital
      l=2, rc=6.0938 Bohr: 3d-sz confined orbital
      l=0, rc=2.0625 Bohr: 3s-dz split-valence wave
      l=0, rc=5.7656 Bohr: 4s-dz split-valence wave
      l=1, rc=2.4062 Bohr: 3p-dz split-valence wave
      l=1, rc=7.8906 Bohr: 4p-dz split-valence wave
      l=2, rc=3.6562 Bohr: 3d-dz split-valence wave
      l=1, rc=9.5312 Bohr: p-type Gaussian polarization

H-setup:
  name: Hydrogen
  id: d65de229564ff8ea4db303e23b6d1ecf
  Z: 1
  valence: 1
  core: 0
  charge: 0.0
  file: /home/wido/sw/gpaw/basis/gpaw-setups-0.9.20000/H.PBE.gz
  cutoffs: 0.48(comp), 0.85(filt), 0.53(core), lmax=2
  valence states:
                energy  radius
    1s(1.00)    -6.494   0.476
    *s          20.717   0.476
    *p           0.000   0.476

  LCAO basis set for H:
    Name: dzp
    File: /home/wido/sw/gpaw/basis/gpaw-setups-0.9.20000/H.dzp.basis.gz
    Number of radial functions: 3
    Number of spherical harmonics: 5
      l=0, rc=6.4219 Bohr: 1s-sz confined orbital
      l=0, rc=3.6094 Bohr: 1s-dz split-valence wave
      l=1, rc=6.4219 Bohr: p-type Gaussian polarization

Reference energy: -935653.237240

Spin-paired calculation

Occupation numbers:
  Fermi-Dirac: width=0.1000 eV

Convergence criteria:
  Maximum total energy change: 0.0005 eV / electron
  Maximum integral of absolute density change: 0.0001 electrons
  Maximum integral of absolute eigenstate change: 4e-08 eV^2
  Maximum number of iterations: 333

Symmetries present (total): 1

  ( 1  0  0)
  ( 0  1  0)
  ( 0  0  1)

4 k-points: 2 x 2 x 1 Monkhorst-Pack grid
2 k-points in the irreducible part of the Brillouin zone
       k-points in crystal coordinates                weights
   0:     0.25000000   -0.25000000    0.00000000          2/4
   1:     0.25000000    0.25000000    0.00000000          2/4

Wave functions: Plane wave expansion
  Cutoff energy: 500.000 eV
  Number of coefficients (min, max): 94343, 94343
  Pulay-stress correction: 0.000000 eV/Ang^3 (de/decut=0.000000)
  Using FFTW library
  ScaLapack parameters: grid=1x1, blocksize=None
  Wavefunction extrapolation:
    Improved wavefunction reuse through dual PAW basis 

Eigensolver
   Davidson(niter=2, smin=None, normalize=True) 

Densities:
  Coarse grid: 54*80*125 grid
  Fine grid: 108*160*250 grid
  Total Charge: 0.000000 

Density mixing:
  Method: separate
  Backend: pulay
  Linear mixing parameter: 0.05
  Mixing with 5 old densities
  Damping of long wave oscillations: 50 

Hamiltonian:
  XC and Coulomb potentials evaluated on a 108*160*250 grid
  Using the PBE Exchange-Correlation functional
 

XC parameters: PBE with 2 nearest neighbor stencil

Memory estimate:
  Process memory now: 327.03 MiB
  Calculator: 1561.19 MiB
    Density: 41.63 MiB
      Arrays: 13.51 MiB
      Localized functions: 22.84 MiB
      Mixer: 5.27 MiB
    Hamiltonian: 9.49 MiB
      Arrays: 8.83 MiB
      XC: 0.00 MiB
      Poisson: 0.00 MiB
      vbar: 0.66 MiB
    Wavefunctions: 1510.07 MiB
      Arrays psit_nG: 719.78 MiB
      Eigensolver: 765.14 MiB
      Projections: 1.45 MiB
      Projectors: 2.61 MiB
      PW-descriptor: 21.09 MiB

Total number of cores used: 16
Parallelization over k-points: 2
Domain decomposition: 1 x 2 x 4

Number of atoms: 105
Number of atomic orbitals: 1893
Number of bands in calculation: 500
Bands to converge: occupied states only
Number of valence electrons: 826

... initialized

Initializing position-dependent things.

Density initialized from atomic densities
Creating initial wave functions:
  500 bands from LCAO basis set

          .------------------------.  
         /|                        |  
        / |                        |  
       /  |                        |  
      /   |                        |  
     /    |                        |  
    /     |                        |  
   /      |                        |  
  /       |                        |  
 *        |                        |  
 |        |                        |  
 |        |                        |  
 |        |                    O   |  
 |        O    H  O         O      |  
 |        |   Oi      O  H  OV     |  
 |      O |   O V  O      Oi     Ti|  
 |        | TO     Oi     O   O    |  
 |   O    |      O     OTi    TiO  |  
 |        OTO     O         O      |  
 |        Oi  O TiO  OTi O   Ti    |  
 |  O  O  |O   Ti     Ti   OTiO  O |  
 |      Tii OO OO    OO   O        |  
 |      OO|       OTii    Tii      |  
 |   OTi  | Tii     O   OO     O   |  
 |    O   |O     OTi     Oi        |  
 |  Ti    TO   O  O    O     O     |  
 |  O    O|     Ti    Ti           |  
 |       Ti         O      O       |  
 |        |  O                     |  
 |        .------------------------.  
 |       /                        /   
 |      /                        /    
 |     /                        /     
 |    /                        /      
 |   /                        /       
 |  /                        /        
 | /                        /         
 |/                        /          
 *------------------------*           

Positions:
   0 O      9.974517    2.862499    7.395923    ( 0.0000,  0.0000,  0.0000)
   1 O      4.751576    0.970856    7.433844    ( 0.0000,  0.0000,  0.0000)
   2 Ti     2.973752    0.965511    8.331948    ( 0.0000,  0.0000,  0.0000)
   3 Ti     8.189404    2.803522    8.288172    ( 0.0000,  0.0000,  0.0000)
   4 Ti     0.613369    2.836809    8.994488    ( 0.0000,  0.0000,  0.0000)
   5 Ti     5.856682    0.938662    8.958328    ( 0.0000,  0.0000,  0.0000)
   6 O      1.063899    0.953977    8.954538    ( 0.0000,  0.0000,  0.0000)
   7 O      6.332739    2.842687    8.933688    ( 0.0000,  0.0000,  0.0000)
   8 O      9.254147    2.761528    9.821154    ( 0.0000,  0.0000,  0.0000)
   9 O      4.054529    0.983467    9.850791    ( 0.0000,  0.0000,  0.0000)
  10 O      7.750782    0.923741    8.323928    ( 0.0000,  0.0000,  0.0000)
  11 O      2.518424    2.887861    8.350100    ( 0.0000,  0.0000,  0.0000)
  12 O      1.092125    2.889953   11.034028    ( 0.0000,  0.0000,  0.0000)
  13 O      6.267596    0.961638   10.990229    ( 0.0000,  0.0000,  0.0000)
  14 Ti     4.405045    0.958723   11.964861    ( 0.0000,  0.0000,  0.0000)
  15 Ti     9.578030    2.827708   11.972631    ( 0.0000,  0.0000,  0.0000)
  16 Ti     2.017050    2.855324   12.556724    ( 0.0000,  0.0000,  0.0000)
  17 Ti     7.203902    0.939632   12.510229    ( 0.0000,  0.0000,  0.0000)
  18 O      2.551413    0.959618   12.759471    ( 0.0000,  0.0000,  0.0000)
  19 O      7.734802    2.844509   12.802438    ( 0.0000,  0.0000,  0.0000)
  20 O      0.368697    2.852199   13.409892    ( 0.0000,  0.0000,  0.0000)
  21 O      5.573617    0.952938   13.382263    ( 0.0000,  0.0000,  0.0000)
  22 O      9.179299    0.943850   11.982475    ( 0.0000,  0.0000,  0.0000)
  23 O      3.985051    2.897415   12.007947    ( 0.0000,  0.0000,  0.0000)
  24 O      9.990889    6.696232    7.341894    ( 0.0000,  0.0000,  0.0000)
  25 O      4.511960    4.787917    8.184082    ( 0.0000,  0.0000,  0.0000)
  26 Ti     2.724858    4.779771    7.960807    ( 0.0000,  0.0000,  0.0000)
  27 Ti     8.145479    6.707698    8.192011    ( 0.0000,  0.0000,  0.0000)
  28 Ti     0.630398    6.695439    9.077253    ( 0.0000,  0.0000,  0.0000)
  29 Ti     6.062248    4.766294    9.148169    ( 0.0000,  0.0000,  0.0000)
  30 O      1.023957    4.767147    8.931551    ( 0.0000,  0.0000,  0.0000)
  31 O      6.358432    6.708779    8.938070    ( 0.0000,  0.0000,  0.0000)
  32 O      9.235162    6.764411    9.751167    ( 0.0000,  0.0000,  0.0000)
  33 O      7.850578    4.773562    8.386917    ( 0.0000,  0.0000,  0.0000)
  34 O      2.498268    6.663844    8.333080    ( 0.0000,  0.0000,  0.0000)
  35 O      0.998194    6.556366   11.110401    ( 0.0000,  0.0000,  0.0000)
  36 O      5.792539    4.759975   10.935232    ( 0.0000,  0.0000,  0.0000)
  37 Ti     4.472828    4.745426   12.270841    ( 0.0000,  0.0000,  0.0000)
  38 Ti     9.445396    6.660188   11.716908    ( 0.0000,  0.0000,  0.0000)
  39 Ti     2.112427    6.627521   12.619916    ( 0.0000,  0.0000,  0.0000)
  40 Ti     7.490663    4.769151   13.132903    ( 0.0000,  0.0000,  0.0000)
  41 O      2.518271    4.741339   12.955585    ( 0.0000,  0.0000,  0.0000)
  42 O      7.665225    6.667639   12.589831    ( 0.0000,  0.0000,  0.0000)
  43 O      0.114947    6.730047   13.480656    ( 0.0000,  0.0000,  0.0000)
  44 O      5.666336    4.793749   13.596222    ( 0.0000,  0.0000,  0.0000)
  45 O      9.094996    4.757329   11.868554    ( 0.0000,  0.0000,  0.0000)
  46 O      3.864855    6.572592   11.861983    ( 0.0000,  0.0000,  0.0000)
  47 O      9.941219   10.526766    7.424162    ( 0.0000,  0.0000,  0.0000)
  48 O      4.793812    8.598035    7.389240    ( 0.0000,  0.0000,  0.0000)
  49 Ti     2.924043    8.598447    8.231525    ( 0.0000,  0.0000,  0.0000)
  50 Ti     8.168624   10.568713    8.307193    ( 0.0000,  0.0000,  0.0000)
  51 Ti     0.689842   10.519812    9.160804    ( 0.0000,  0.0000,  0.0000)
  52 Ti     5.895270    8.633917    8.910762    ( 0.0000,  0.0000,  0.0000)
  53 O      1.085423    8.597422    8.995679    ( 0.0000,  0.0000,  0.0000)
  54 O      6.252646   10.528029    8.921193    ( 0.0000,  0.0000,  0.0000)
  55 O      9.220059   10.568411    9.844708    ( 0.0000,  0.0000,  0.0000)
  56 O      4.059029    8.507535    9.748930    ( 0.0000,  0.0000,  0.0000)
  57 O      7.758726    8.628199    8.273162    ( 0.0000,  0.0000,  0.0000)
  58 O      2.566398   10.490594    8.371621    ( 0.0000,  0.0000,  0.0000)
  59 O      1.046869   10.535114   11.113053    ( 0.0000,  0.0000,  0.0000)
  60 O      6.205999    8.633712   11.069797    ( 0.0000,  0.0000,  0.0000)
  61 Ti     4.281039    8.679682   11.649472    ( 0.0000,  0.0000,  0.0000)
  62 Ti     9.630672   10.526811   11.949616    ( 0.0000,  0.0000,  0.0000)
  63 Ti     2.065658   10.529317   12.855128    ( 0.0000,  0.0000,  0.0000)
  64 Ti     7.232344    8.662613   12.598809    ( 0.0000,  0.0000,  0.0000)
  65 O      2.501218    8.560054   12.461331    ( 0.0000,  0.0000,  0.0000)
  66 O      7.659776   10.515135   12.777278    ( 0.0000,  0.0000,  0.0000)
  67 O      0.344631   10.459241   13.479847    ( 0.0000,  0.0000,  0.0000)
  68 O      5.280029    8.588587   13.443192    ( 0.0000,  0.0000,  0.0000)
  69 O      9.048376    8.614278   11.860402    ( 0.0000,  0.0000,  0.0000)
  70 O      3.989779   10.510721   11.814333    ( 0.0000,  0.0000,  0.0000)
  71 O      9.924325   14.342583    7.441007    ( 0.0000,  0.0000,  0.0000)
  72 O      4.751345   12.420255    7.419069    ( 0.0000,  0.0000,  0.0000)
  73 Ti     2.956521   12.425773    8.321746    ( 0.0000,  0.0000,  0.0000)
  74 Ti     8.154962   14.365639    8.334509    ( 0.0000,  0.0000,  0.0000)
  75 Ti     0.650324   14.339133    8.977444    ( 0.0000,  0.0000,  0.0000)
  76 Ti     5.825252   12.455807    8.942724    ( 0.0000,  0.0000,  0.0000)
  77 O      1.076745   12.417342    8.959204    ( 0.0000,  0.0000,  0.0000)
  78 O      6.230080   14.350295    8.927239    ( 0.0000,  0.0000,  0.0000)
  79 O      9.212773   14.346204    9.869863    ( 0.0000,  0.0000,  0.0000)
  80 O      4.047363   12.465565    9.835258    ( 0.0000,  0.0000,  0.0000)
  81 O      7.738576   12.452498    8.352645    ( 0.0000,  0.0000,  0.0000)
  82 O      2.551770   14.335367    8.361171    ( 0.0000,  0.0000,  0.0000)
  83 O      1.079840   14.333331   11.019148    ( 0.0000,  0.0000,  0.0000)
  84 O      6.260151   12.442487   10.972905    ( 0.0000,  0.0000,  0.0000)
  85 Ti     4.388186   12.434765   11.925246    ( 0.0000,  0.0000,  0.0000)
  86 Ti     9.584844   14.316764   11.992637    ( 0.0000,  0.0000,  0.0000)
  87 Ti     2.034816   14.340138   12.522519    ( 0.0000,  0.0000,  0.0000)
  88 Ti     7.178490   12.426397   12.494445    ( 0.0000,  0.0000,  0.0000)
  89 O      2.556275   12.432462   12.757668    ( 0.0000,  0.0000,  0.0000)
  90 O      7.711947   14.330115   12.746167    ( 0.0000,  0.0000,  0.0000)
  91 O      0.413180   14.330589   13.410225    ( 0.0000,  0.0000,  0.0000)
  92 O      5.548636   12.409374   13.358424    ( 0.0000,  0.0000,  0.0000)
  93 O      9.174929   12.405969   12.010699    ( 0.0000,  0.0000,  0.0000)
  94 O      4.001800   14.349122   11.952110    ( 0.0000,  0.0000,  0.0000)
  95 V      4.113673    8.632190   14.795820    ( 0.0000,  0.0000,  0.0000)
  96 O      3.256552    7.048371   14.700857    ( 0.0000,  0.0000,  0.0000)
  97 O      2.957523   10.125058   14.627513    ( 0.0000,  0.0000,  0.0000)
  98 O      4.856221    8.768154   16.190011    ( 0.0000,  0.0000,  0.0000)
  99 H      2.991685   10.816250   15.316476    ( 0.0000,  0.0000,  0.0000)
 100 V      9.204445   10.566639   14.711170    ( 0.0000,  0.0000,  0.0000)
 101 O      8.280576   12.020247   14.506099    ( 0.0000,  0.0000,  0.0000)
 102 O      8.107478    9.013486   14.595796    ( 0.0000,  0.0000,  0.0000)
 103 O      9.862455   10.540852   16.156501    ( 0.0000,  0.0000,  0.0000)
 104 H      8.055794    8.400084   15.352635    ( 0.0000,  0.0000,  0.0000)

Unit cell:
           periodic     x           y           z      points  spacing
  1. axis:    yes   10.341746    0.000000    0.000000    54     0.1915
  2. axis:    yes   -0.000000   15.289380    0.000000    80     0.1911
  3. axis:    yes    0.000000    0.000000   23.497201   125     0.1880

  Lengths:  10.341746  15.289380  23.497201
  Angles:   90.000000  90.000000  90.000000

Effective grid spacing dv^(1/3) = 0.1902

                     log10-error:    total        iterations:
           time      wfs    density  energy       fermi  poisson
iter:   1  12:57:42  -0.10   +inf  -975.981263    3             
iter:   2  12:58:11  -0.97  -0.95  -933.089292    5             
iter:   3  12:58:39  +0.36  -1.00  -857.037474    37            
iter:   4  12:59:08  -0.33  -1.28  -856.115262    34            
iter:   5  12:59:37  -1.17  -1.33  -856.480191    34            
iter:   6  13:00:05  -1.61  -1.35  -857.510411    31            
iter:   7  13:00:34  -1.24  -1.38  -858.889751    34            
iter:   8  13:01:02  -1.23  -1.51  -856.506586    35            
iter:   9  13:01:31  -2.01  -1.71  -856.226303    32            
iter:  10  13:01:59  -1.89  -1.79  -855.696315    3             
iter:  11  13:02:28  -2.61  -1.96  -855.061793    5             
iter:  12  13:02:57  -2.55  -2.09  -854.910556    4             
iter:  13  13:03:25  -2.66  -2.23  -854.948098    4             
iter:  14  13:03:54  -2.87  -2.32  -854.887937    4             
iter:  15  13:04:22  -3.13  -2.41  -854.853022    3             
iter:  16  13:04:51  -3.63  -2.51  -854.845754    3             
iter:  17  13:05:19  -3.41  -2.62  -854.825983    4             
iter:  18  13:05:48  -3.81  -2.86  -854.829454    4             
iter:  19  13:06:16  -4.31  -3.00  -854.819311    3             
iter:  20  13:06:45  -4.62  -3.09  -854.819956    3             
iter:  21  13:07:13  -4.22  -3.17  -854.818328    2             
iter:  22  13:07:42  -5.13  -3.35  -854.818244    2             
iter:  23  13:08:11  -5.46  -3.43  -854.817715    2             
iter:  24  13:08:39  -5.70  -3.49  -854.817700    2             
iter:  25  13:09:08  -5.23  -3.55  -854.817693    3             
iter:  26  13:09:36  -5.63  -3.80  -854.817184    3             
iter:  27  13:10:05  -6.24  -3.95  -854.817415    2             
iter:  28  13:10:33  -6.29  -4.04  -854.817193    2             
iter:  29  13:11:02  -6.54  -4.17  -854.817308    2             
iter:  30  13:11:31  -6.80  -4.26  -854.817272    2             
iter:  31  13:11:59  -7.18  -4.32  -854.817271    2             
iter:  32  13:12:28  -7.51  -4.38  -854.817277    2             

Converged after 32 iterations.

Dipole moment: (-2.717297, -0.708611, -1.090713) |e|*Ang

Energy contributions relative to reference atoms: (reference = -935653.237240)

Kinetic:       +611.955497
Potential:     -777.507824
External:        +0.000000
XC:            -695.272357
Entropy (-ST):   -0.558543
Local:           +6.286678
--------------------------
Free energy:   -855.096549
Extrapolated:  -854.817277

Fermi level: -1.36448

Showing all kpts
 Kpt  Band  Eigenvalues  Occupancy
  0   411     -2.68701    1.00000
  0   412     -1.28252    0.30584
  0   413     -1.25089    0.24306
  0   414     -1.20240    0.16509

  1   411     -2.68711    1.00000
  1   412     -1.28385    0.30867
  1   413     -1.24036    0.22423
  1   414     -1.21143    0.17791



Forces in eV/Ang:
  0 O    -1.53845   -0.10758    1.24290
  1 O    -1.04356    0.01628    1.26217
  2 Ti    2.55636    0.01776    1.18561
  3 Ti    2.67366    0.29448    0.79920
  4 Ti   -0.02804    0.15256   -1.36522
  5 Ti   -1.80673    0.13881   -1.02744
  6 O     0.31537   -0.10369   -0.01414
  7 O     0.14295    0.27611   -0.23061
  8 O    -1.45827    0.01583    0.26964
  9 O    -0.72181   -0.04860   -0.07286
 10 O     0.19994    0.45913   -1.06389
 11 O     0.43952   -0.18107   -1.03358
 12 O    -0.09239   -0.04247   -0.09476
 13 O    -0.01920    0.02996   -0.04071
 14 Ti    0.00319    0.13551    0.06806
 15 Ti    0.29614    0.20995   -0.04677
 16 Ti    0.12809    0.54116    0.16814
 17 Ti    0.02083   -0.46950    0.02763
 18 O     0.02004   -0.15177   -0.01815
 19 O    -0.05482    0.46526    0.36906
 20 O    -0.19095   -0.05707   -0.04441
 21 O    -0.02953    0.01861   -0.03412
 22 O    -0.01383    0.05570   -0.01453
 23 O     0.05538   -0.20426   -0.05865
 24 O    -1.61895   -0.06589    2.04378
 25 O    -0.18263   -0.03185   -0.20485
 26 Ti   -0.26249    0.07319    0.79578
 27 Ti    3.67552    0.58481    0.44807
 28 Ti    0.01434   -0.04918   -2.01814
 29 Ti   -0.51402    0.17849    0.44621
 30 O     0.29391    0.02443   -0.00166
 31 O    -0.20863   -0.35694   -0.11049
 32 O    -1.76167   -0.00767    0.15981
 33 O    -0.10537   -0.26591   -0.86144
 34 O     0.50527    0.14490   -1.15045
 35 O     0.28836   -0.00869   -1.24921
 36 O     0.10066   -0.06564   -0.22166
 37 Ti   -0.70448    0.52073    0.10877
 38 Ti    2.20766    0.28736    4.10047
 39 Ti   -2.45382   -0.09119    2.09435
 40 Ti   -0.31635    0.55973   -1.63667
 41 O     0.29663   -0.59907   -0.34020
 42 O    -0.77043   -0.49708    0.92362
 43 O     0.76149   -0.18541   -2.71959
 44 O     1.08000   -0.08074    0.37020
 45 O    -0.59464   -0.84137    0.33279
 46 O     0.73821   -0.06015   -0.41899
 47 O    -1.46054    0.02391    2.20258
 48 O    -1.03765   -0.01156    1.23636
 49 Ti    2.54292   -0.12362    1.05515
 50 Ti    3.70335   -0.18087    0.25526
 51 Ti   -1.35188   -0.02807   -2.40718
 52 Ti   -1.31839    0.07849   -1.16993
 53 O     0.28683    0.06004    0.09085
 54 O    -0.01571   -0.10637   -0.08867
 55 O    -0.80772   -0.10763    0.68052
 56 O    -0.87279    0.06776    0.11794
 57 O     0.14970   -0.09766   -0.81626
 58 O     0.21948    0.05035   -0.74653
 59 O     0.12480    0.11210    0.81125
 60 O    -0.13674    0.11532   -0.14969
 61 Ti   -0.01350   -0.73332    0.37635
 62 Ti   -1.56305   -0.06996   -3.55534
 63 Ti    1.80976   -0.45115   -2.40879
 64 Ti    0.14038   -0.28496    0.16124
 65 O     0.07090    1.40448    0.24835
 66 O     0.39785   -0.61539   -1.79992
 67 O    -0.98615    0.10330    1.92209
 68 O     1.01170    0.18147   -0.92058
 69 O    -0.05129    0.84458   -0.07260
 70 O    -0.40488    0.24263    0.39070
 71 O    -1.10763    0.03150    1.33249
 72 O    -1.20180    0.06774    1.17638
 73 Ti    2.69310   -0.04964    0.98856
 74 Ti    2.90019   -1.00822    0.98075
 75 Ti   -1.06890   -0.11038   -1.16904
 76 Ti   -1.06309   -0.45492   -1.13435
 77 O     0.24440    0.04797    0.09691
 78 O     0.22104    0.10796   -0.16232
 79 O    -0.71308   -0.00462   -0.07649
 80 O    -0.86910   -0.04952   -0.08937
 81 O     0.03574    0.19329   -0.92173
 82 O     0.21854    0.18777   -0.93565
 83 O     0.05804   -0.02776   -0.00953
 84 O    -0.41441   -0.04109   -0.60083
 85 Ti    0.60134    0.13893    0.00158
 86 Ti   -0.28965   -0.07204    0.15842
 87 Ti   -0.11533    0.38652   -0.05814
 88 Ti    0.96113    0.18719    2.08600
 89 O    -0.24078   -0.50723    0.36287
 90 O     0.02084    0.40271   -0.35804
 91 O     0.16691   -0.04116   -0.00888
 92 O    -0.66650   -0.02742   -0.30867
 93 O     0.49642   -0.23788   -0.59908
 94 O    -0.04487   -0.08550    0.01700
 95 V    -1.76913   -3.91389    0.15157
 96 O     0.82813    2.69956   -0.42808
 97 O    -0.39496    0.68418    0.08711
 98 O     0.25938    0.04779    0.33466
 99 H     0.03066   -0.02938    0.07023
100 V    -2.36272    1.74600    1.00899
101 O     1.44393   -1.25131    0.92915
102 O    -0.14591   -0.35595    0.31847
103 O     0.11555   -0.00473    0.27044
104 H     0.13987   -0.02382    0.03823

System changes: positions 

Initializing position-dependent things.

Density initialized from wave functions
          .------------------------.  
         /|                        |  
        / |                        |  
       /  |                        |  
      /   |                        |  
     /    |                        |  
    /     |                        |  
   /      |                        |  
  /       |                        |  
 *        |                        |  
 |        |                        |  
 |        |                        |  
 |        |                    O   |  
 |        O    H  O         O      |  
 |        |   Oi      O  H  OV     |  
 |      O |   O V  O      Oi     Ti|  
 |        | TO     Oi     O   O    |  
 |   O    |      O     OTi    TiO  |  
 |        OTO     O         O      |  
 |        Oi  O TiO  OTi O   Ti    |  
 |  O  O  |O   Tii    Ti   OTi   O |  
 |      Tii O  OO    OO   O        |  
 |      OO|  O    OTii    Tii      |  
 |   OTi  | Tii     O   OO     O   |  
 |    O   |O     OTi     Oi        |  
 |  Ti    TO   O  O    O     O     |  
 |  O    O|     Ti     Ti          |  
 |       Ti         O      O       |  
 |        |  O                     |  
 |        .------------------------.  
 |       /                        /   
 |      /                        /    
 |     /                        /     
 |    /                        /      
 |   /                        /       
 |  /                        /        
 | /                        /         
 |/                        /          
 *------------------------*           

Positions:
   0 O      9.961328    2.861577    7.406578    ( 0.0000,  0.0000,  0.0000)
   1 O      4.742629    0.970995    7.444665    ( 0.0000,  0.0000,  0.0000)
   2 Ti     2.995667    0.965663    8.342112    ( 0.0000,  0.0000,  0.0000)
   3 Ti     8.212325    2.806047    8.295024    ( 0.0000,  0.0000,  0.0000)
   4 Ti     0.613128    2.838117    8.982784    ( 0.0000,  0.0000,  0.0000)
   5 Ti     5.841193    0.939852    8.949520    ( 0.0000,  0.0000,  0.0000)
   6 O      1.066603    0.953088    8.954417    ( 0.0000,  0.0000,  0.0000)
   7 O      6.333965    2.845054    8.931711    ( 0.0000,  0.0000,  0.0000)
   8 O      9.241645    2.761664    9.823466    ( 0.0000,  0.0000,  0.0000)
   9 O      4.048341    0.983050    9.850166    ( 0.0000,  0.0000,  0.0000)
  10 O      7.752496    0.927677    8.314808    ( 0.0000,  0.0000,  0.0000)
  11 O      2.522192    2.886309    8.341239    ( 0.0000,  0.0000,  0.0000)
  12 O      1.091333    2.889589   11.033216    ( 0.0000,  0.0000,  0.0000)
  13 O      6.267432    0.961895   10.989880    ( 0.0000,  0.0000,  0.0000)
  14 Ti     4.405072    0.959885   11.965445    ( 0.0000,  0.0000,  0.0000)
  15 Ti     9.580569    2.829508   11.972230    ( 0.0000,  0.0000,  0.0000)
  16 Ti     2.018148    2.859963   12.558165    ( 0.0000,  0.0000,  0.0000)
  17 Ti     7.204081    0.935607   12.510466    ( 0.0000,  0.0000,  0.0000)
  18 O      2.551585    0.958317   12.759316    ( 0.0000,  0.0000,  0.0000)
  19 O      7.734332    2.848497   12.805602    ( 0.0000,  0.0000,  0.0000)
  20 O      0.367060    2.851709   13.409512    ( 0.0000,  0.0000,  0.0000)
  21 O      5.573364    0.953098   13.381970    ( 0.0000,  0.0000,  0.0000)
  22 O      9.179181    0.944328   11.982351    ( 0.0000,  0.0000,  0.0000)
  23 O      3.985526    2.895664   12.007444    ( 0.0000,  0.0000,  0.0000)
  24 O      9.977010    6.695667    7.359415    ( 0.0000,  0.0000,  0.0000)
  25 O      4.510395    4.787644    8.182325    ( 0.0000,  0.0000,  0.0000)
  26 Ti     2.722607    4.780399    7.967629    ( 0.0000,  0.0000,  0.0000)
  27 Ti     8.176988    6.712712    8.195852    ( 0.0000,  0.0000,  0.0000)
  28 Ti     0.630521    6.695018    9.059952    ( 0.0000,  0.0000,  0.0000)
  29 Ti     6.057841    4.767824    9.151995    ( 0.0000,  0.0000,  0.0000)
  30 O      1.026476    4.767356    8.931537    ( 0.0000,  0.0000,  0.0000)
  31 O      6.356643    6.705719    8.937123    ( 0.0000,  0.0000,  0.0000)
  32 O      9.220059    6.764345    9.752537    ( 0.0000,  0.0000,  0.0000)
  33 O      7.849674    4.771282    8.379531    ( 0.0000,  0.0000,  0.0000)
  34 O      2.502600    6.665087    8.323217    ( 0.0000,  0.0000,  0.0000)
  35 O      1.000666    6.556291   11.099692    ( 0.0000,  0.0000,  0.0000)
  36 O      5.793402    4.759412   10.933331    ( 0.0000,  0.0000,  0.0000)
  37 Ti     4.466788    4.749890   12.271774    ( 0.0000,  0.0000,  0.0000)
  38 Ti     9.464322    6.662652   11.752061    ( 0.0000,  0.0000,  0.0000)
  39 Ti     2.091391    6.626739   12.637870    ( 0.0000,  0.0000,  0.0000)
  40 Ti     7.487951    4.773950   13.118872    ( 0.0000,  0.0000,  0.0000)
  41 O      2.520814    4.736203   12.952668    ( 0.0000,  0.0000,  0.0000)
  42 O      7.658620    6.663377   12.597749    ( 0.0000,  0.0000,  0.0000)
  43 O      0.121475    6.728458   13.457341    ( 0.0000,  0.0000,  0.0000)
  44 O      5.675595    4.793056   13.599396    ( 0.0000,  0.0000,  0.0000)
  45 O      9.089898    4.750116   11.871407    ( 0.0000,  0.0000,  0.0000)
  46 O      3.871184    6.572077   11.858391    ( 0.0000,  0.0000,  0.0000)
  47 O      9.928698   10.526971    7.443045    ( 0.0000,  0.0000,  0.0000)
  48 O      4.784916    8.597935    7.399839    ( 0.0000,  0.0000,  0.0000)
  49 Ti     2.945843    8.597387    8.240571    ( 0.0000,  0.0000,  0.0000)
  50 Ti     8.200373   10.567163    8.309382    ( 0.0000,  0.0000,  0.0000)
  51 Ti     0.678252   10.519571    9.140167    ( 0.0000,  0.0000,  0.0000)
  52 Ti     5.883967    8.634590    8.900733    ( 0.0000,  0.0000,  0.0000)
  53 O      1.087882    8.597936    8.996458    ( 0.0000,  0.0000,  0.0000)
  54 O      6.252511   10.527117    8.920433    ( 0.0000,  0.0000,  0.0000)
  55 O      9.213134   10.567489    9.850542    ( 0.0000,  0.0000,  0.0000)
  56 O      4.051546    8.508115    9.749941    ( 0.0000,  0.0000,  0.0000)
  57 O      7.760009    8.627362    8.266164    ( 0.0000,  0.0000,  0.0000)
  58 O      2.568279   10.491026    8.365221    ( 0.0000,  0.0000,  0.0000)
  59 O      1.047939   10.536075   11.120008    ( 0.0000,  0.0000,  0.0000)
  60 O      6.204827    8.634701   11.068514    ( 0.0000,  0.0000,  0.0000)
  61 Ti     4.280923    8.673396   11.652698    ( 0.0000,  0.0000,  0.0000)
  62 Ti     9.617272   10.526211   11.919137    ( 0.0000,  0.0000,  0.0000)
  63 Ti     2.081173   10.525450   12.834478    ( 0.0000,  0.0000,  0.0000)
  64 Ti     7.233547    8.660170   12.600191    ( 0.0000,  0.0000,  0.0000)
  65 O      2.501826    8.572094   12.463460    ( 0.0000,  0.0000,  0.0000)
  66 O      7.663186   10.509859   12.761847    ( 0.0000,  0.0000,  0.0000)
  67 O      0.336177   10.460127   13.496325    ( 0.0000,  0.0000,  0.0000)
  68 O      5.288702    8.590143   13.435300    ( 0.0000,  0.0000,  0.0000)
  69 O      9.047936    8.621518   11.859780    ( 0.0000,  0.0000,  0.0000)
  70 O      3.986308   10.512801   11.817682    ( 0.0000,  0.0000,  0.0000)
  71 O      9.914829   14.342853    7.452430    ( 0.0000,  0.0000,  0.0000)
  72 O      4.741042   12.420836    7.429154    ( 0.0000,  0.0000,  0.0000)
  73 Ti     2.979609   12.425347    8.330221    ( 0.0000,  0.0000,  0.0000)
  74 Ti     8.179825   14.356996    8.342917    ( 0.0000,  0.0000,  0.0000)
  75 Ti     0.641160   14.338186    8.967422    ( 0.0000,  0.0000,  0.0000)
  76 Ti     5.816138   12.451907    8.933000    ( 0.0000,  0.0000,  0.0000)
  77 O      1.078841   12.417753    8.960035    ( 0.0000,  0.0000,  0.0000)
  78 O      6.231975   14.351220    8.925848    ( 0.0000,  0.0000,  0.0000)
  79 O      9.206660   14.346165    9.869208    ( 0.0000,  0.0000,  0.0000)
  80 O      4.039912   12.465140    9.834491    ( 0.0000,  0.0000,  0.0000)
  81 O      7.738883   12.454156    8.344743    ( 0.0000,  0.0000,  0.0000)
  82 O      2.553644   14.336976    8.353149    ( 0.0000,  0.0000,  0.0000)
  83 O      1.080337   14.333093   11.019066    ( 0.0000,  0.0000,  0.0000)
  84 O      6.256598   12.442135   10.967754    ( 0.0000,  0.0000,  0.0000)
  85 Ti     4.393341   12.435956   11.925260    ( 0.0000,  0.0000,  0.0000)
  86 Ti     9.582361   14.316147   11.993996    ( 0.0000,  0.0000,  0.0000)
  87 Ti     2.033827   14.343452   12.522020    ( 0.0000,  0.0000,  0.0000)
  88 Ti     7.186730   12.428002   12.512328    ( 0.0000,  0.0000,  0.0000)
  89 O      2.554211   12.428113   12.760778    ( 0.0000,  0.0000,  0.0000)
  90 O      7.712125   14.333567   12.743098    ( 0.0000,  0.0000,  0.0000)
  91 O      0.414610   14.330236   13.410149    ( 0.0000,  0.0000,  0.0000)
  92 O      5.542922   12.409139   13.355778    ( 0.0000,  0.0000,  0.0000)
  93 O      9.179185   12.403929   12.005563    ( 0.0000,  0.0000,  0.0000)
  94 O      4.001416   14.348389   11.952255    ( 0.0000,  0.0000,  0.0000)
  95 V      4.098507    8.598636   14.797120    ( 0.0000,  0.0000,  0.0000)
  96 O      3.263652    7.071515   14.697187    ( 0.0000,  0.0000,  0.0000)
  97 O      2.954137   10.130923   14.628260    ( 0.0000,  0.0000,  0.0000)
  98 O      4.858444    8.768563   16.192880    ( 0.0000,  0.0000,  0.0000)
  99 H      2.991947   10.815998   15.317078    ( 0.0000,  0.0000,  0.0000)
 100 V      9.184190   10.581607   14.719820    ( 0.0000,  0.0000,  0.0000)
 101 O      8.292955   12.009520   14.514064    ( 0.0000,  0.0000,  0.0000)
 102 O      8.106227    9.010434   14.598526    ( 0.0000,  0.0000,  0.0000)
 103 O      9.863446   10.540811   16.158819    ( 0.0000,  0.0000,  0.0000)
 104 H      8.056993    8.399879   15.352963    ( 0.0000,  0.0000,  0.0000)

Unit cell:
           periodic     x           y           z      points  spacing
  1. axis:    yes   10.341746    0.000000    0.000000    54     0.1915
  2. axis:    yes   -0.000000   15.289380    0.000000    80     0.1911
  3. axis:    yes    0.000000    0.000000   23.497201   125     0.1880

  Lengths:  10.341746  15.289380  23.497201
  Angles:   90.000000  90.000000  90.000000

Effective grid spacing dv^(1/3) = 0.1902

                     log10-error:    total        iterations:
           time      wfs    density  energy       fermi  poisson
iter:   1  13:13:16  -1.66   +inf  -857.371714    3             
iter:   2  13:13:45  -2.63  -2.42  -857.250958    4             
iter:   3  13:14:13  -3.08  -2.46  -857.120586    4             
iter:   4  13:14:42  -2.35  -2.53  -856.996135    4             
iter:   5  13:15:10  -3.18  -2.72  -856.998432    4             
iter:   6  13:15:39  -3.86  -2.77  -857.002863    4             
iter:   7  13:16:07  -3.60  -2.80  -856.979655    3             
iter:   8  13:16:36  -3.62  -3.00  -856.973646    3             
iter:   9  13:17:04  -4.41  -3.13  -856.969790    3             
iter:  10  13:17:33  -4.89  -3.25  -856.970551    2             
iter:  11  13:18:01  -4.98  -3.37  -856.969804    3             
iter:  12  13:18:30  -5.25  -3.54  -856.969441    2             
iter:  13  13:18:58  -5.85  -3.62  -856.969791    3             
iter:  14  13:19:27  -5.78  -3.69  -856.969278    2             
iter:  15  13:19:56  -5.78  -3.79  -856.969537    3             
iter:  16  13:20:24  -5.64  -3.92  -856.969668    2             
iter:  17  13:20:53  -6.23  -4.05  -856.969470    2             
iter:  18  13:21:21  -6.10  -4.21  -856.969462    1             
iter:  19  13:21:50  -6.66  -4.33  -856.969449    2             
iter:  20  13:22:18  -7.02  -4.42  -856.969443    2             
iter:  21  13:22:47  -7.34  -4.59  -856.969460    2             
iter:  22  13:23:15  -7.11  -4.69  -856.969417    2             
iter:  23  13:23:44  -7.91  -4.78  -856.969457    2             

Converged after 23 iterations.

Dipole moment: (-5.128304, -0.758648, -1.155389) |e|*Ang

Energy contributions relative to reference atoms: (reference = -935653.237240)

Kinetic:       +616.308730
Potential:     -782.350834
External:        +0.000000
XC:            -697.001249
Entropy (-ST):   -0.553222
Local:           +6.350507
--------------------------
Free energy:   -857.246068
Extrapolated:  -856.969457

Fermi level: -1.30904

Showing all kpts
 Kpt  Band  Eigenvalues  Occupancy
  0   411     -3.03975    1.00000
  0   412     -1.22971    0.31145
  0   413     -1.19729    0.24648
  0   414     -1.15023    0.16965

  1   411     -3.03960    1.00000
  1   412     -1.23049    0.31313
  1   413     -1.18885    0.23114
  1   414     -1.15762    0.18032



Forces in eV/Ang:
  0 O    -1.31734   -0.07755    0.96535
  1 O    -1.04688    0.01597    0.94415
  2 Ti    1.93674   -0.05098    0.95690
  3 Ti    1.88984    0.21615    0.72592
  4 Ti    0.15776   -0.04229   -1.01381
  5 Ti   -1.01719    0.16538   -0.80929
  6 O     0.24197   -0.05270   -0.03093
  7 O     0.11457    0.15730   -0.24650
  8 O    -1.06725    0.03171    0.34940
  9 O    -0.59594   -0.03816    0.13811
 10 O     0.14240    0.28960   -1.01937
 11 O     0.31350   -0.19665   -0.99097
 12 O    -0.07353   -0.01412   -0.09070
 13 O    -0.04829    0.01908   -0.01031
 14 Ti    0.07584    0.07784    0.13880
 15 Ti    0.17649    0.12253   -0.01909
 16 Ti    0.05277    0.29375    0.06247
 17 Ti   -0.01323   -0.25332   -0.05121
 18 O     0.00633   -0.05803   -0.00800
 19 O    -0.03003    0.33035    0.32242
 20 O    -0.10614   -0.03109    0.00090
 21 O    -0.04814    0.00838   -0.01148
 22 O    -0.00979    0.03081   -0.02308
 23 O     0.02573   -0.11309   -0.05258
 24 O    -1.37572   -0.05033    1.68086
 25 O    -0.25694   -0.03420   -0.20973
 26 Ti   -0.00087    0.01999    0.66723
 27 Ti    2.89379    0.41566    0.59514
 28 Ti   -0.09175    0.06958   -1.66716
 29 Ti   -0.28507    0.20065    0.14314
 30 O     0.17712    0.03403    0.01162
 31 O    -0.12048   -0.19160   -0.18642
 32 O    -1.27074   -0.01890    0.39758
 33 O    -0.07758   -0.18902   -0.84008
 34 O     0.37215    0.19871   -1.09668
 35 O     0.38087   -0.00979   -0.91271
 36 O    -0.02026   -0.06854    0.07507
 37 Ti   -0.31125    0.48218    0.13183
 38 Ti    1.94799    0.27182    3.46546
 39 Ti   -2.10973   -0.00757    1.49214
 40 Ti   -0.41305    0.36457   -1.52575
 41 O     0.19027   -0.31205   -0.23852
 42 O    -0.55940   -0.35731    0.83363
 43 O     0.86372   -0.18035   -2.41958
 44 O     0.76857   -0.06084    0.21014
 45 O    -0.44494   -0.55281    0.26632
 46 O     0.37420   -0.02454   -0.21476
 47 O    -1.20046    0.01708    1.88486
 48 O    -1.08354    0.00254    0.92596
 49 Ti    2.18602   -0.06486    0.90556
 50 Ti    2.69240   -0.18781    0.19452
 51 Ti   -0.77927    0.02254   -2.01162
 52 Ti   -0.80264   -0.03949   -0.89342
 53 O     0.20577    0.06293    0.05724
 54 O     0.03034   -0.09490   -0.16113
 55 O    -0.62392   -0.10190    0.75687
 56 O    -0.75098    0.05855    0.22455
 57 O     0.14467    0.03212   -0.79943
 58 O     0.14083    0.03642   -0.74346
 59 O     0.02896    0.08704    0.46885
 60 O    -0.14954    0.10177   -0.11974
 61 Ti    0.20383   -0.70016    0.45990
 62 Ti   -0.92433   -0.09338   -2.53204
 63 Ti    1.04214   -0.28068   -1.87597
 64 Ti   -0.05156   -0.31212    0.12703
 65 O     0.01417    0.93944    0.28065
 66 O     0.34458   -0.39922   -1.61434
 67 O    -0.92952    0.15321    1.13160
 68 O     0.67931    0.09900   -0.67007
 69 O     0.00564    0.53846   -0.11559
 70 O    -0.40370    0.16061    0.33077
 71 O    -1.00048   -0.00048    0.97725
 72 O    -1.19121    0.04831    0.87897
 73 Ti    2.13060    0.00847    0.83046
 74 Ti    2.06236   -0.66043    0.82304
 75 Ti   -0.49132   -0.06634   -0.83245
 76 Ti   -0.52684   -0.36103   -0.76272
 77 O     0.16316   -0.01766    0.06467
 78 O     0.17687    0.06682   -0.20252
 79 O    -0.51702   -0.03273    0.12257
 80 O    -0.72398   -0.05286    0.03655
 81 O     0.06569    0.04075   -0.92535
 82 O     0.16729    0.14975   -0.90966
 83 O    -0.01341   -0.01745   -0.06493
 84 O    -0.19107   -0.03957   -0.12558
 85 Ti    0.54762    0.16802   -0.00841
 86 Ti   -0.09354   -0.01384    0.19339
 87 Ti   -0.07013    0.24580   -0.06721
 88 Ti    0.56418    0.13177    1.50969
 89 O    -0.15978   -0.38389    0.27859
 90 O     0.01559    0.24918   -0.27215
 91 O     0.06431   -0.03291   -0.00928
 92 O    -0.46398   -0.02364   -0.17489
 93 O     0.35428   -0.13933   -0.56764
 94 O    -0.03407   -0.05646   -0.00094
 95 V    -0.93278   -2.31230    0.29726
 96 O     0.35889    1.72239   -0.34129
 97 O    -0.22720    0.17823   -0.11167
 98 O    -0.05805   -0.15223   -0.07672
 99 H     0.04548    0.09696    0.19317
100 V    -1.37307    0.80319    0.87250
101 O     0.83426   -0.42887    0.79124
102 O    -0.18601   -0.20594    0.12928
103 O    -0.01100    0.06497    0.22881
104 H     0.11259   -0.12395    0.17444

System changes: positions 

Initializing position-dependent things.

Density initialized from wave functions
          .------------------------.  
         /|                        |  
        / |                        |  
       /  |                        |  
      /   |                        |  
     /    |                        |  
    /     |                        |  
   /      |                        |  
  /       |                        |  
 *        |                        |  
 |        |                        |  
 |        |                        |  
 |        |                    O   |  
 |        O    H  O         O      |  
 |        |   Oi      O  H  OV     |  
 |      O |   O V  O      Oi     Ti|  
 |        | TO     Oi     O   O    |  
 |   O    |      O     OTi    TiO  |  
 |        TiO     O         O      |  
 |        OTi O TiO  OTi O   Ti    |  
 |  O  O  |O   Tii    Ti   OTi   O |  
 |      Tii O  OO    OO   O        |  
 |      OO|  O    OTii    Tii      |  
 |   OTi  | Tii     O   OO     O   |  
 |    O   |O     OTi     Oi        |  
 |  Ti    TO   O  O    O     O     |  
 |  O    O|     Ti     Ti          |  
 |       Ti         O      O       |  
 |        |  O                     |  
 |        .------------------------.  
 |       /                        /   
 |      /                        /    
 |     /                        /     
 |    /                        /      
 |   /                        /       
 |  /                        /        
 | /                        /         
 |/                        /          
 *------------------------*           

Positions:
   0 O      9.948093    2.860848    7.415938    ( 0.0000,  0.0000,  0.0000)
   1 O      4.731586    0.971163    7.453682    ( 0.0000,  0.0000,  0.0000)
   2 Ti     3.014260    0.964924    8.351526    ( 0.0000,  0.0000,  0.0000)
   3 Ti     8.229942    2.808095    8.302459    ( 0.0000,  0.0000,  0.0000)
   4 Ti     0.615336    2.837100    8.973130    ( 0.0000,  0.0000,  0.0000)
   5 Ti     5.832790    0.941673    8.941631    ( 0.0000,  0.0000,  0.0000)
   6 O      1.068938    0.952682    8.954041    ( 0.0000,  0.0000,  0.0000)
   7 O      6.335089    2.846363    8.929066    ( 0.0000,  0.0000,  0.0000)
   8 O      9.231544    2.762045    9.827382    ( 0.0000,  0.0000,  0.0000)
   9 O      4.042430    0.982679    9.852241    ( 0.0000,  0.0000,  0.0000)
  10 O      7.753828    0.930232    8.304195    ( 0.0000,  0.0000,  0.0000)
  11 O      2.525126    2.884190    8.330920    ( 0.0000,  0.0000,  0.0000)
  12 O      1.090613    2.889523   11.032272    ( 0.0000,  0.0000,  0.0000)
  13 O      6.266838    0.962064   10.989860    ( 0.0000,  0.0000,  0.0000)
  14 Ti     4.406084    0.960536   11.967115    ( 0.0000,  0.0000,  0.0000)
  15 Ti     9.582078    2.830543   11.972110    ( 0.0000,  0.0000,  0.0000)
  16 Ti     2.018483    2.862333   12.558514    ( 0.0000,  0.0000,  0.0000)
  17 Ti     7.203842    0.933572   12.509695    ( 0.0000,  0.0000,  0.0000)
  18 O      2.551612    0.957981   12.759261    ( 0.0000,  0.0000,  0.0000)
  19 O      7.734088    2.851583   12.808864    ( 0.0000,  0.0000,  0.0000)
  20 O      0.366191    2.851458   13.409654    ( 0.0000,  0.0000,  0.0000)
  21 O      5.572802    0.953156   13.381916    ( 0.0000,  0.0000,  0.0000)
  22 O      9.179090    0.944580   11.982082    ( 0.0000,  0.0000,  0.0000)
  23 O      3.985710    2.894740   12.006908    ( 0.0000,  0.0000,  0.0000)
  24 O      9.963225    6.695182    7.376065    ( 0.0000,  0.0000,  0.0000)
  25 O      4.507469    4.787277    8.180101    ( 0.0000,  0.0000,  0.0000)
  26 Ti     2.723366    4.780453    7.974284    ( 0.0000,  0.0000,  0.0000)
  27 Ti     8.205193    6.716596    8.202556    ( 0.0000,  0.0000,  0.0000)
  28 Ti     0.629243    6.696099    9.043411    ( 0.0000,  0.0000,  0.0000)
  29 Ti     6.055509    4.770004    9.152614    ( 0.0000,  0.0000,  0.0000)
  30 O      1.028000    4.767743    8.931698    ( 0.0000,  0.0000,  0.0000)
  31 O      6.355632    6.704185    8.934935    ( 0.0000,  0.0000,  0.0000)
  32 O      9.208107    6.764113    9.757425    ( 0.0000,  0.0000,  0.0000)
  33 O      7.848938    4.769516    8.370741    ( 0.0000,  0.0000,  0.0000)
  34 O      2.506131    6.667339    8.311817    ( 0.0000,  0.0000,  0.0000)
  35 O      1.004952    6.556185   11.091060    ( 0.0000,  0.0000,  0.0000)
  36 O      5.792834    4.758681   10.934993    ( 0.0000,  0.0000,  0.0000)
  37 Ti     4.464661    4.754859   12.273231    ( 0.0000,  0.0000,  0.0000)
  38 Ti     9.484090    6.665471   11.786721    ( 0.0000,  0.0000,  0.0000)
  39 Ti     2.070166    6.626905   12.651829    ( 0.0000,  0.0000,  0.0000)
  40 Ti     7.483314    4.777220   13.103117    ( 0.0000,  0.0000,  0.0000)
  41 O      2.522507    4.733757   12.950453    ( 0.0000,  0.0000,  0.0000)
  42 O      7.653344    6.660022   12.606271    ( 0.0000,  0.0000,  0.0000)
  43 O      0.130878    6.726572   13.432721    ( 0.0000,  0.0000,  0.0000)
  44 O      5.682781    4.792474   13.601141    ( 0.0000,  0.0000,  0.0000)
  45 O      9.085648    4.745137   11.874019    ( 0.0000,  0.0000,  0.0000)
  46 O      3.874059    6.571923   11.856727    ( 0.0000,  0.0000,  0.0000)
  47 O      9.916810   10.527131    7.461977    ( 0.0000,  0.0000,  0.0000)
  48 O      4.773362    8.598004    7.408687    ( 0.0000,  0.0000,  0.0000)
  49 Ti     2.967835    8.596876    8.249675    ( 0.0000,  0.0000,  0.0000)
  50 Ti     8.225782   10.565163    8.311253    ( 0.0000,  0.0000,  0.0000)
  51 Ti     0.671719   10.519957    9.120127    ( 0.0000,  0.0000,  0.0000)
  52 Ti     5.877021    8.633827    8.892128    ( 0.0000,  0.0000,  0.0000)
  53 O      1.089813    8.598608    8.996963    ( 0.0000,  0.0000,  0.0000)
  54 O      6.252966   10.526151    8.918522    ( 0.0000,  0.0000,  0.0000)
  55 O      9.207098   10.566432    9.858742    ( 0.0000,  0.0000,  0.0000)
  56 O      4.043989    8.508705    9.752620    ( 0.0000,  0.0000,  0.0000)
  57 O      7.761519    8.628081    8.257788    ( 0.0000,  0.0000,  0.0000)
  58 O      2.569533   10.491369    8.357394    ( 0.0000,  0.0000,  0.0000)
  59 O      1.047963   10.536919   11.123945    ( 0.0000,  0.0000,  0.0000)
  60 O      6.203214    8.635734   11.067340    ( 0.0000,  0.0000,  0.0000)
  61 Ti     4.283709    8.666114   11.657790    ( 0.0000,  0.0000,  0.0000)
  62 Ti     9.609404   10.525158   11.895454    ( 0.0000,  0.0000,  0.0000)
  63 Ti     2.089904   10.522992   12.816270    ( 0.0000,  0.0000,  0.0000)
  64 Ti     7.232441    8.656800   12.601430    ( 0.0000,  0.0000,  0.0000)
  65 O      2.501809    8.580631   12.466513    ( 0.0000,  0.0000,  0.0000)
  66 O      7.666662   10.506286   12.745378    ( 0.0000,  0.0000,  0.0000)
  67 O      0.326546   10.461888   13.505932    ( 0.0000,  0.0000,  0.0000)
  68 O      5.294886    8.590944   13.428973    ( 0.0000,  0.0000,  0.0000)
  69 O      9.048162    8.626295   11.858436    ( 0.0000,  0.0000,  0.0000)
  70 O      3.982057   10.514254   11.820993    ( 0.0000,  0.0000,  0.0000)
  71 O      9.904599   14.342754    7.461687    ( 0.0000,  0.0000,  0.0000)
  72 O      4.728519   12.421288    7.437545    ( 0.0000,  0.0000,  0.0000)
  73 Ti     3.000413   12.425607    8.338509    ( 0.0000,  0.0000,  0.0000)
  74 Ti     8.199103   14.351056    8.351129    ( 0.0000,  0.0000,  0.0000)
  75 Ti     0.637677   14.337617    8.959636    ( 0.0000,  0.0000,  0.0000)
  76 Ti     5.812159   12.448377    8.926052    ( 0.0000,  0.0000,  0.0000)
  77 O      1.080322   12.417375    8.960622    ( 0.0000,  0.0000,  0.0000)
  78 O      6.233710   14.351804    8.923595    ( 0.0000,  0.0000,  0.0000)
  79 O      9.201786   14.345737    9.871084    ( 0.0000,  0.0000,  0.0000)
  80 O      4.032708   12.464573    9.835246    ( 0.0000,  0.0000,  0.0000)
  81 O      7.739663   12.454137    8.334980    ( 0.0000,  0.0000,  0.0000)
  82 O      2.555257   14.338443    8.343639    ( 0.0000,  0.0000,  0.0000)
  83 O      1.079986   14.332939   11.018219    ( 0.0000,  0.0000,  0.0000)
  84 O      6.255239   12.441722   10.967825    ( 0.0000,  0.0000,  0.0000)
  85 Ti     4.398955   12.437812   11.925142    ( 0.0000,  0.0000,  0.0000)
  86 Ti     9.581950   14.316172   11.996136    ( 0.0000,  0.0000,  0.0000)
  87 Ti     2.033221   14.345630   12.521285    ( 0.0000,  0.0000,  0.0000)
  88 Ti     7.191511   12.429228   12.526548    ( 0.0000,  0.0000,  0.0000)
  89 O      2.552765   12.424430   12.763467    ( 0.0000,  0.0000,  0.0000)
  90 O      7.712274   14.335743   12.740481    ( 0.0000,  0.0000,  0.0000)
  91 O      0.414987   14.329913   13.410050    ( 0.0000,  0.0000,  0.0000)
  92 O      5.538626   12.408901   13.354328    ( 0.0000,  0.0000,  0.0000)
  93 O      9.182502   12.402750   11.999673    ( 0.0000,  0.0000,  0.0000)
  94 O      4.001088   14.347879   11.952193    ( 0.0000,  0.0000,  0.0000)
  95 V      4.091130    8.578966   14.800680    ( 0.0000,  0.0000,  0.0000)
  96 O      3.266057    7.086800   14.693845    ( 0.0000,  0.0000,  0.0000)
  97 O      2.952235   10.131317   14.626500    ( 0.0000,  0.0000,  0.0000)
  98 O      4.856901    8.766372   16.190865    ( 0.0000,  0.0000,  0.0000)
  99 H      2.992470   10.817391   15.319475    ( 0.0000,  0.0000,  0.0000)
 100 V      9.172622   10.587306   14.728614    ( 0.0000,  0.0000,  0.0000)
 101 O      8.299959   12.007413   14.521998    ( 0.0000,  0.0000,  0.0000)
 102 O      8.104149    9.008704   14.599333    ( 0.0000,  0.0000,  0.0000)
 103 O      9.862959   10.541701   16.161109    ( 0.0000,  0.0000,  0.0000)
 104 H      8.058099    8.398279   15.355201    ( 0.0000,  0.0000,  0.0000)

Unit cell:
           periodic     x           y           z      points  spacing
  1. axis:    yes   10.341746    0.000000    0.000000    54     0.1915
  2. axis:    yes   -0.000000   15.289380    0.000000    80     0.1911
  3. axis:    yes    0.000000    0.000000   23.497201   125     0.1880

  Lengths:  10.341746  15.289380  23.497201
  Angles:   90.000000  90.000000  90.000000

Effective grid spacing dv^(1/3) = 0.1902

                     log10-error:    total        iterations:
           time      wfs    density  energy       fermi  poisson
iter:   1  13:24:32  -1.85   +inf  -858.655795    3             
iter:   2  13:25:01  -2.85  -2.53  -858.576438    3             
iter:   3  13:25:29  -3.37  -2.57  -858.493213    4             
iter:   4  13:25:58  -2.56  -2.64  -858.404833    4             
iter:   5  13:26:26  -3.28  -2.82  -858.406179    3             
iter:   6  13:26:55  -4.07  -2.87  -858.408257    4             
iter:   7  13:27:23  -3.84  -2.91  -858.395915    3             
iter:   8  13:27:52  -3.76  -3.08  -858.390749    3             
iter:   9  13:28:20  -4.49  -3.24  -858.388403    3             
iter:  10  13:28:49  -4.85  -3.41  -858.388229    2             
iter:  11  13:29:17  -5.51  -3.61  -858.388275    2             
iter:  12  13:29:46  -5.78  -3.66  -858.388102    2             
iter:  13  13:30:14  -6.00  -3.72  -858.388234    2             
iter:  14  13:30:43  -5.73  -3.80  -858.388062    2             
iter:  15  13:31:11  -5.94  -3.94  -858.388159    3             
iter:  16  13:31:40  -6.52  -4.00  -858.388042    2             
iter:  17  13:32:08  -6.39  -4.04  -858.388042    2             
iter:  18  13:32:37  -6.87  -4.10  -858.388035    2             
iter:  19  13:33:05  -6.90  -4.14  -858.387949    2             
iter:  20  13:33:34  -6.83  -4.28  -858.388039    2             
iter:  21  13:34:02  -7.19  -4.44  -858.387996    2             
iter:  22  13:34:31  -7.13  -4.58  -858.388012    2             
iter:  23  13:34:59  -7.55  -4.74  -858.388014    2             

Converged after 23 iterations.

Dipole moment: (-7.405659, -0.769648, -1.179255) |e|*Ang

Energy contributions relative to reference atoms: (reference = -935653.237240)

Kinetic:       +623.998678
Potential:     -789.499186
External:        +0.000000
XC:            -698.947923
Entropy (-ST):   -0.550798
Local:           +6.335816
--------------------------
Free energy:   -858.663413
Extrapolated:  -858.388014

Fermi level: -1.26113

Showing all kpts
 Kpt  Band  Eigenvalues  Occupancy
  0   411     -3.15855    1.00000
  0   412     -1.18284    0.31370
  0   413     -1.15055    0.24865
  0   414     -1.10324    0.17096

  1   411     -3.15852    1.00000
  1   412     -1.18293    0.31389
  1   413     -1.14494    0.23832
  1   414     -1.10824    0.17816



Forces in eV/Ang:
  0 O    -1.07970   -0.05877    0.73775
  1 O    -0.97394    0.01457    0.67119
  2 Ti    1.38787   -0.08965    0.75810
  3 Ti    1.26635    0.16311    0.64006
  4 Ti    0.27120   -0.14637   -0.71906
  5 Ti   -0.45503    0.17064   -0.59787
  6 O     0.17688   -0.03149   -0.03820
  7 O     0.05619    0.09507   -0.25162
  8 O    -0.74201    0.03914    0.42558
  9 O    -0.44684   -0.03415    0.30718
 10 O     0.08328    0.17718   -0.95362
 11 O     0.21118   -0.20166   -0.94534
 12 O    -0.07281   -0.00043   -0.10628
 13 O    -0.07426    0.01334   -0.02626
 14 Ti    0.09233    0.07205    0.17605
 15 Ti    0.10903    0.06016    0.00438
 16 Ti    0.03155    0.15664   -0.00409
 17 Ti   -0.00403   -0.12715   -0.07905
 18 O    -0.00505   -0.02024   -0.00336
 19 O    -0.01787    0.21042    0.27597
 20 O    -0.05841   -0.01368    0.01949
 21 O    -0.04570    0.00095    0.01172
 22 O    -0.01045    0.02825   -0.02289
 23 O     0.01118   -0.05820   -0.03983
 24 O    -1.09151   -0.03400    1.29548
 25 O    -0.18612   -0.03603   -0.19107
 26 Ti    0.08184   -0.00443    0.56405
 27 Ti    2.14865    0.28972    0.69804
 28 Ti   -0.06881    0.15440   -1.29812
 29 Ti   -0.12653    0.21201   -0.00820
 30 O     0.10016    0.04039    0.01518
 31 O    -0.10018   -0.08376   -0.22931
 32 O    -0.88807   -0.02570    0.53740
 33 O    -0.08168   -0.12173   -0.83408
 34 O     0.25442    0.22653   -1.04265
 35 O     0.39791   -0.00713   -0.68112
 36 O    -0.03289   -0.06782    0.16449
 37 Ti   -0.15451    0.44035    0.13470
 38 Ti    1.61362    0.25901    2.76539
 39 Ti   -1.65370    0.02263    1.02238
 40 Ti   -0.47045    0.21298   -1.43909
 41 O     0.09625   -0.12135   -0.17020
 42 O    -0.38537   -0.22495    0.75208
 43 O     0.91516   -0.15527   -2.00494
 44 O     0.54829   -0.04569    0.15046
 45 O    -0.31138   -0.32944    0.21755
 46 O     0.16307    0.02449   -0.08693
 47 O    -0.88009    0.00871    1.48099
 48 O    -1.05116    0.01291    0.66327
 49 Ti    1.77442   -0.02998    0.75510
 50 Ti    1.80072   -0.17725    0.23687
 51 Ti   -0.35135    0.04226   -1.61180
 52 Ti   -0.39033   -0.10606   -0.63469
 53 O     0.13566    0.05630    0.02719
 54 O     0.01876   -0.08585   -0.20345
 55 O    -0.46494   -0.09841    0.71428
 56 O    -0.59017    0.05135    0.32315
 57 O     0.11862    0.10490   -0.76217
 58 O     0.08119    0.02966   -0.72047
 59 O    -0.00941    0.06910    0.24746
 60 O    -0.15428    0.08130   -0.12983
 61 Ti    0.28126   -0.65864    0.52605
 62 Ti   -0.60914   -0.06136   -1.86299
 63 Ti    0.60890   -0.16089   -1.51545
 64 Ti   -0.12752   -0.27909    0.08316
 65 O    -0.03020    0.60573    0.28488
 66 O     0.28816   -0.27403   -1.43420
 67 O    -0.85799    0.16169    0.69305
 68 O     0.49273    0.04837   -0.49019
 69 O     0.04889    0.27517   -0.11088
 70 O    -0.37430    0.09497    0.27938
 71 O    -0.84999   -0.02078    0.69200
 72 O    -1.08881    0.03419    0.64788
 73 Ti    1.57771    0.03410    0.65651
 74 Ti    1.39729   -0.43192    0.68766
 75 Ti   -0.10287   -0.05269   -0.56537
 76 Ti   -0.12473   -0.29536   -0.47220
 77 O     0.10217   -0.04011    0.03679
 78 O     0.11978    0.02854   -0.22058
 79 O    -0.34224   -0.04455    0.28071
 80 O    -0.53384   -0.04956    0.18539
 81 O     0.05875   -0.05840   -0.90473
 82 O     0.12129    0.11545   -0.87038
 83 O    -0.04065   -0.00740   -0.09200
 84 O    -0.11422   -0.03268    0.04559
 85 Ti    0.47147    0.15047   -0.00136
 86 Ti   -0.01124   -0.01668    0.18992
 87 Ti   -0.03968    0.14103   -0.07887
 88 Ti    0.42364    0.07733    1.20392
 89 O    -0.11020   -0.26647    0.21048
 90 O     0.00423    0.16734   -0.21444
 91 O     0.02808   -0.02298    0.00013
 92 O    -0.34081   -0.02139   -0.05896
 93 O     0.26102   -0.05799   -0.52478
 94 O    -0.02816   -0.04375   -0.01141
 95 V    -0.52232   -1.19155    0.02685
 96 O    -0.01121    0.93889   -0.27855
 97 O    -0.12279    0.11191   -0.00187
 98 O    -0.06653   -0.23723    0.00774
 99 H     0.03778   -0.04025    0.04046
100 V    -0.84864    0.35347    0.61186
101 O     0.48603   -0.02158    0.66040
102 O    -0.21340   -0.22555    0.14502
103 O    -0.02635    0.07810    0.32073
104 H     0.09464   -0.09056    0.13181

System changes: positions 

Initializing position-dependent things.

Density initialized from wave functions
          .------------------------.  
         /|                        |  
        / |                        |  
       /  |                        |  
      /   |                        |  
     /    |                        |  
    /     |                        |  
   /      |                        |  
  /       |                        |  
 *        |                        |  
 |        |                        |  
 |        |                        |  
 |        |                    O   |  
 |        O    H  O         O      |  
 |        |   Oi      O  H  OV     |  
 |      O |   O V  O      Oi     Ti|  
 |        | TO     Oi     O    O   |  
 |   O    |      O     OTi    TiO  |  
 |        TiO     O         O      |  
 |        OTi O TiO  OTi O  Tii    |  
 |  O  O  |O   Tii    Ti   O O   O |  
 |      Tii O  OO   OOO   O        |  
 |      OO|  O    OTii    Tii      |  
 |   OTi  | Tii     O   OO     O   |  
 |    O   |O     OTi     Oi        |  
 |  Ti    TO   O  O    O     O     |  
 |  O    O|     Ti     Ti          |  
 |       Ti         O      O       |  
 |        |  O                     |  
 |        .------------------------.  
 |       /                        /   
 |      /                        /    
 |     /                        /     
 |    /                        /      
 |   /                        /       
 |  /                        /        
 | /                        /         
 |/                        /          
 *------------------------*           

Positions:
   0 O      9.934591    2.860153    7.424828    ( 0.0000,  0.0000,  0.0000)
   1 O      4.718792    0.971353    7.461529    ( 0.0000,  0.0000,  0.0000)
   2 Ti     3.030577    0.963544    8.360824    ( 0.0000,  0.0000,  0.0000)
   3 Ti     8.244231    2.810029    8.310670    ( 0.0000,  0.0000,  0.0000)
   4 Ti     0.619470    2.834631    8.964746    ( 0.0000,  0.0000,  0.0000)
   5 Ti     5.829163    0.943993    8.934473    ( 0.0000,  0.0000,  0.0000)
   6 O      1.071036    0.952388    8.953492    ( 0.0000,  0.0000,  0.0000)
   7 O      6.335667    2.847310    8.925686    ( 0.0000,  0.0000,  0.0000)
   8 O      9.222981    2.762605    9.833325    ( 0.0000,  0.0000,  0.0000)
   9 O      4.037004    0.982250    9.857011    ( 0.0000,  0.0000,  0.0000)
  10 O      7.754720    0.932085    8.291729    ( 0.0000,  0.0000,  0.0000)
  11 O      2.527519    2.881475    8.318518    ( 0.0000,  0.0000,  0.0000)
  12 O      1.089676    2.889590   11.030832    ( 0.0000,  0.0000,  0.0000)
  13 O      6.265750    0.962212   10.989524    ( 0.0000,  0.0000,  0.0000)
  14 Ti     4.407459    0.961392   11.969644    ( 0.0000,  0.0000,  0.0000)
  15 Ti     9.583198    2.831074   11.972261    ( 0.0000,  0.0000,  0.0000)
  16 Ti     2.018740    2.863740   12.558154    ( 0.0000,  0.0000,  0.0000)
  17 Ti     7.203755    0.932486   12.508462    ( 0.0000,  0.0000,  0.0000)
  18 O      2.551499    0.957937   12.759242    ( 0.0000,  0.0000,  0.0000)
  19 O      7.733915    2.853915   12.812360    ( 0.0000,  0.0000,  0.0000)
  20 O      0.365647    2.851353   13.410023    ( 0.0000,  0.0000,  0.0000)
  21 O      5.572171    0.953137   13.382156    ( 0.0000,  0.0000,  0.0000)
  22 O      9.178955    0.944911   11.981765    ( 0.0000,  0.0000,  0.0000)
  23 O      3.985782    2.894225   12.006415    ( 0.0000,  0.0000,  0.0000)
  24 O      9.949700    6.694789    7.391900    ( 0.0000,  0.0000,  0.0000)
  25 O      4.505031    4.786791    8.177593    ( 0.0000,  0.0000,  0.0000)
  26 Ti     2.725035    4.780260    7.981362    ( 0.0000,  0.0000,  0.0000)
  27 Ti     8.230952    6.719917    8.212281    ( 0.0000,  0.0000,  0.0000)
  28 Ti     0.628214    6.698516    9.027488    ( 0.0000,  0.0000,  0.0000)
  29 Ti     6.054520    4.772880    9.151713    ( 0.0000,  0.0000,  0.0000)
  30 O      1.028987    4.768308    8.931928    ( 0.0000,  0.0000,  0.0000)
  31 O      6.354480    6.703557    8.931678    ( 0.0000,  0.0000,  0.0000)
  32 O      9.197879    6.763739    9.765234    ( 0.0000,  0.0000,  0.0000)
  33 O      7.847887    4.768160    8.359700    ( 0.0000,  0.0000,  0.0000)
  34 O      2.509056    6.670492    8.298157    ( 0.0000,  0.0000,  0.0000)
  35 O      1.010420    6.556094   11.083022    ( 0.0000,  0.0000,  0.0000)
  36 O      5.792183    4.757777   10.937829    ( 0.0000,  0.0000,  0.0000)
  37 Ti     4.463550    4.760563   12.275063    ( 0.0000,  0.0000,  0.0000)
  38 Ti     9.504422    6.668862   11.821000    ( 0.0000,  0.0000,  0.0000)
  39 Ti     2.049691    6.627400   12.663484    ( 0.0000,  0.0000,  0.0000)
  40 Ti     7.476789    4.779425   13.084346    ( 0.0000,  0.0000,  0.0000)
  41 O      2.523421    4.732995   12.948494    ( 0.0000,  0.0000,  0.0000)
  42 O      7.648920    6.657530   12.615954    ( 0.0000,  0.0000,  0.0000)
  43 O      0.143310    6.724570   13.407421    ( 0.0000,  0.0000,  0.0000)
  44 O      5.689117    4.791929   13.602766    ( 0.0000,  0.0000,  0.0000)
  45 O      9.082026    4.741681   11.876703    ( 0.0000,  0.0000,  0.0000)
  46 O      3.875213    6.572408   11.856160    ( 0.0000,  0.0000,  0.0000)
  47 O      9.906198   10.527218    7.480308    ( 0.0000,  0.0000,  0.0000)
  48 O      4.759388    8.598219    7.416462    ( 0.0000,  0.0000,  0.0000)
  49 Ti     2.989989    8.596643    8.259159    ( 0.0000,  0.0000,  0.0000)
  50 Ti     8.246249   10.562819    8.314399    ( 0.0000,  0.0000,  0.0000)
  51 Ti     0.668849   10.520639    9.100169    ( 0.0000,  0.0000,  0.0000)
  52 Ti     5.873511    8.632093    8.884672    ( 0.0000,  0.0000,  0.0000)
  53 O      1.091341    8.599347    8.997208    ( 0.0000,  0.0000,  0.0000)
  54 O      6.253262   10.525047    8.915615    ( 0.0000,  0.0000,  0.0000)
  55 O      9.201542   10.565140    9.868263    ( 0.0000,  0.0000,  0.0000)
  56 O      4.036676    8.509358    9.757291    ( 0.0000,  0.0000,  0.0000)
  57 O      7.763033    8.629831    8.247763    ( 0.0000,  0.0000,  0.0000)
  58 O      2.570363   10.491727    8.347872    ( 0.0000,  0.0000,  0.0000)
  59 O      1.047608   10.537760   11.126232    ( 0.0000,  0.0000,  0.0000)
  60 O      6.201133    8.636750   11.065639    ( 0.0000,  0.0000,  0.0000)
  61 Ti     4.287948    8.657499   11.665053    ( 0.0000,  0.0000,  0.0000)
  62 Ti     9.602968   10.524375   11.873702    ( 0.0000,  0.0000,  0.0000)
  63 Ti     2.095886   10.521373   12.797720    ( 0.0000,  0.0000,  0.0000)
  64 Ti     7.230287    8.653120   12.602388    ( 0.0000,  0.0000,  0.0000)
  65 O      2.501225    8.587250   12.470358    ( 0.0000,  0.0000,  0.0000)
  66 O      7.670289   10.503245   12.726987    ( 0.0000,  0.0000,  0.0000)
  67 O      0.315383   10.464132   13.512985    ( 0.0000,  0.0000,  0.0000)
  68 O      5.300523    8.591352   13.423229    ( 0.0000,  0.0000,  0.0000)
  69 O      9.048993    8.628917   11.856905    ( 0.0000,  0.0000,  0.0000)
  70 O      3.977146   10.515249   11.824504    ( 0.0000,  0.0000,  0.0000)
  71 O      9.893788   14.342385    7.469727    ( 0.0000,  0.0000,  0.0000)
  72 O      4.714281   12.421682    7.445203    ( 0.0000,  0.0000,  0.0000)
  73 Ti     3.019333   12.426205    8.346619    ( 0.0000,  0.0000,  0.0000)
  74 Ti     8.214959   14.346340    8.359736    ( 0.0000,  0.0000,  0.0000)
  75 Ti     0.638032   14.337013    8.953212    ( 0.0000,  0.0000,  0.0000)
  76 Ti     5.812189   12.444737    8.920971    ( 0.0000,  0.0000,  0.0000)
  77 O      1.081424   12.416692    8.961001    ( 0.0000,  0.0000,  0.0000)
  78 O      6.235112   14.352038    8.920563    ( 0.0000,  0.0000,  0.0000)
  79 O      9.197914   14.345077    9.875460    ( 0.0000,  0.0000,  0.0000)
  80 O      4.026243   12.463916    9.838223    ( 0.0000,  0.0000,  0.0000)
  81 O      7.740475   12.452914    8.322993    ( 0.0000,  0.0000,  0.0000)
  82 O      2.556691   14.339846    8.332194    ( 0.0000,  0.0000,  0.0000)
  83 O      1.079278   14.332878   11.016853    ( 0.0000,  0.0000,  0.0000)
  84 O      6.254230   12.441305   10.969531    ( 0.0000,  0.0000,  0.0000)
  85 Ti     4.404976   12.439819   11.925123    ( 0.0000,  0.0000,  0.0000)
  86 Ti     9.582280   14.316034   11.998707    ( 0.0000,  0.0000,  0.0000)
  87 Ti     2.032828   14.347063   12.520198    ( 0.0000,  0.0000,  0.0000)
  88 Ti     7.196228   12.430054   12.541006    ( 0.0000,  0.0000,  0.0000)
  89 O      2.551531   12.421329   12.765989    ( 0.0000,  0.0000,  0.0000)
  90 O      7.712298   14.337555   12.737887    ( 0.0000,  0.0000,  0.0000)
  91 O      0.415124   14.329642   13.410071    ( 0.0000,  0.0000,  0.0000)
  92 O      5.534672   12.408627   13.353998    ( 0.0000,  0.0000,  0.0000)
  93 O      9.185553   12.402305   11.992838    ( 0.0000,  0.0000,  0.0000)
  94 O      4.000743   14.347369   11.951991    ( 0.0000,  0.0000,  0.0000)
  95 V      4.086357    8.567998   14.800684    ( 0.0000,  0.0000,  0.0000)
  96 O      3.264392    7.096095   14.690410    ( 0.0000,  0.0000,  0.0000)
  97 O      2.951085   10.131881   14.626402    ( 0.0000,  0.0000,  0.0000)
  98 O      4.855508    8.762728   16.190513    ( 0.0000,  0.0000,  0.0000)
  99 H      2.992979   10.816758   15.319876    ( 0.0000,  0.0000,  0.0000)
 100 V      9.163992   10.589586   14.735979    ( 0.0000,  0.0000,  0.0000)
 101 O      8.304733   12.009267   14.530284    ( 0.0000,  0.0000,  0.0000)
 102 O      8.101192    9.005896   14.601002    ( 0.0000,  0.0000,  0.0000)
 103 O      9.862380   10.542875   16.165504    ( 0.0000,  0.0000,  0.0000)
 104 H      8.059277    8.396992   15.357073    ( 0.0000,  0.0000,  0.0000)

Unit cell:
           periodic     x           y           z      points  spacing
  1. axis:    yes   10.341746    0.000000    0.000000    54     0.1915
  2. axis:    yes   -0.000000   15.289380    0.000000    80     0.1911
  3. axis:    yes    0.000000    0.000000   23.497201   125     0.1880

  Lengths:  10.341746  15.289380  23.497201
  Angles:   90.000000  90.000000  90.000000

Effective grid spacing dv^(1/3) = 0.1902

                     log10-error:    total        iterations:
           time      wfs    density  energy       fermi  poisson
iter:   1  13:35:47  -1.91   +inf  -859.649397    4             
iter:   2  13:36:16  -2.92  -2.58  -859.586225    3             
iter:   3  13:36:44  -3.51  -2.62  -859.520394    4             
iter:   4  13:37:13  -2.63  -2.69  -859.440553    4             
iter:   5  13:37:42  -3.33  -2.88  -859.441908    3             
iter:   6  13:38:10  -4.17  -2.93  -859.442621    3             
iter:   7  13:38:39  -3.96  -2.97  -859.434658    3             
iter:   8  13:39:07  -3.80  -3.12  -859.429842    3             
iter:   9  13:39:36  -4.52  -3.31  -859.427795    3             
iter:  10  13:40:04  -4.98  -3.48  -859.427682    3             
iter:  11  13:40:33  -5.69  -3.67  -859.427710    2             
iter:  12  13:41:01  -5.88  -3.71  -859.427538    2             
iter:  13  13:41:30  -6.21  -3.78  -859.427724    2             
iter:  14  13:41:59  -5.49  -3.84  -859.427560    2             
iter:  15  13:42:27  -5.79  -4.02  -859.427559    2             
iter:  16  13:42:56  -6.56  -4.10  -859.427508    2             
iter:  17  13:43:24  -6.41  -4.17  -859.427472    2             
iter:  18  13:43:53  -6.42  -4.23  -859.427541    2             
iter:  19  13:44:21  -6.86  -4.36  -859.427461    2             
iter:  20  13:44:50  -7.32  -4.44  -859.427483    2             
iter:  21  13:45:18  -7.56  -4.48  -859.427468    2             

Converged after 21 iterations.

Dipole moment: (-9.551028, -0.777815, -1.198440) |e|*Ang

Energy contributions relative to reference atoms: (reference = -935653.237240)

Kinetic:       +632.322592
Potential:     -796.951542
External:        +0.000000
XC:            -700.838797
Entropy (-ST):   -0.550805
Local:           +6.315681
--------------------------
Free energy:   -859.702870
Extrapolated:  -859.427468

Fermi level: -1.22698

Showing all kpts
 Kpt  Band  Eigenvalues  Occupancy
  0   411     -3.18461    1.00000
  0   412     -1.14901    0.31439
  0   413     -1.11684    0.24948
  0   414     -1.06774    0.16905

  1   411     -3.18465    1.00000
  1   412     -1.14851    0.31332
  1   413     -1.11367    0.24360
  1   414     -1.07085    0.17347



Forces in eV/Ang:
  0 O    -0.83296   -0.04575    0.56201
  1 O    -0.84939    0.01264    0.45240
  2 Ti    0.91056   -0.11467    0.58374
  3 Ti    0.75257    0.12397    0.55282
  4 Ti    0.32604   -0.20330   -0.47579
  5 Ti   -0.06315    0.16573   -0.41557
  6 O     0.11016   -0.02337   -0.03937
  7 O    -0.01068    0.05869   -0.24829
  8 O    -0.46898    0.04233    0.47799
  9 O    -0.29375   -0.03147    0.42519
 10 O     0.03257    0.09318   -0.86980
 11 O     0.12331   -0.19383   -0.89385
 12 O    -0.06589    0.00707   -0.11731
 13 O    -0.08498    0.01130   -0.04939
 14 Ti    0.07836    0.07312    0.18972
 15 Ti    0.05892    0.01851    0.02330
 16 Ti    0.02521    0.07127   -0.05069
 17 Ti    0.01293   -0.04084   -0.09013
 18 O    -0.01436   -0.00118    0.00012
 19 O    -0.00987    0.10324    0.22757
 20 O    -0.01827    0.00183    0.02721
 21 O    -0.02555   -0.00447    0.03450
 22 O    -0.01569    0.02821   -0.01773
 23 O     0.00033   -0.00647   -0.02357
 24 O    -0.78256   -0.01726    0.91216
 25 O    -0.07553   -0.03524   -0.16314
 26 Ti    0.09818   -0.01522    0.46910
 27 Ti    1.42858    0.18344    0.75912
 28 Ti    0.01563    0.21855   -0.92897
 29 Ti   -0.01638    0.20634   -0.10256
 30 O     0.05095    0.04515    0.00855
 31 O    -0.11709    0.00283   -0.25351
 32 O    -0.56687   -0.02635    0.59034
 33 O    -0.09230   -0.06107   -0.83273
 34 O     0.15049    0.23314   -0.98032
 35 O     0.37736    0.00015   -0.48248
 36 O    -0.00531   -0.05975    0.18644
 37 Ti   -0.08413    0.39250    0.14211
 38 Ti    1.18443    0.23620    1.95962
 39 Ti   -1.14255    0.03219    0.64127
 40 Ti   -0.50745    0.09157   -1.36375
 41 O     0.01540    0.00298   -0.11928
 42 O    -0.23384   -0.09907    0.67989
 43 O     0.96439   -0.11730   -1.35522
 44 O     0.35222   -0.02961    0.11789
 45 O    -0.18670   -0.14966    0.18281
 46 O     0.05790    0.07361   -0.00916
 47 O    -0.54028   -0.00106    1.04791
 48 O    -0.95136    0.02136    0.44585
 49 Ti    1.33405   -0.00455    0.59257
 50 Ti    1.00683   -0.15809    0.30896
 51 Ti   -0.00840    0.04561   -1.23205
 52 Ti   -0.08241   -0.14923   -0.40478
 53 O     0.06085    0.04558    0.00082
 54 O    -0.01962   -0.08457   -0.22908
 55 O    -0.33148   -0.09551    0.60453
 56 O    -0.40562    0.04395    0.40919
 57 O     0.09187    0.14804   -0.71136
 58 O     0.03492    0.02603   -0.68964
 59 O    -0.01296    0.05396    0.08666
 60 O    -0.14883    0.05495   -0.14730
 61 Ti    0.28603   -0.61208    0.54731
 62 Ti   -0.41572   -0.02597   -1.32110
 63 Ti    0.31388   -0.06253   -1.21088
 64 Ti   -0.12791   -0.23950    0.04164
 65 O    -0.05904    0.35325    0.28705
 66 O     0.23332   -0.18339   -1.26104
 67 O    -0.77755    0.15480    0.38447
 68 O     0.38248    0.00700   -0.36224
 69 O     0.08120    0.05582   -0.08170
 70 O    -0.34412    0.03166    0.23857
 71 O    -0.67770   -0.03598    0.46330
 72 O    -0.92311    0.02151    0.44435
 73 Ti    1.06675    0.04462    0.48798
 74 Ti    0.85775   -0.26319    0.56753
 75 Ti    0.15049   -0.05288   -0.35833
 76 Ti    0.14460   -0.23150   -0.23849
 77 O     0.04186   -0.04268    0.01291
 78 O     0.05995   -0.00723   -0.23226
 79 O    -0.19069   -0.05028    0.39537
 80 O    -0.33629   -0.04566    0.31253
 81 O     0.04625   -0.12655   -0.86720
 82 O     0.08140    0.08303   -0.81910
 83 O    -0.04672    0.00170   -0.10725
 84 O    -0.06485   -0.02700    0.13831
 85 Ti    0.38789    0.12341    0.00328
 86 Ti    0.02609   -0.02841    0.16712
 87 Ti   -0.00852    0.05720   -0.08453
 88 Ti    0.33971    0.03183    0.98163
 89 O    -0.07428   -0.16265    0.15056
 90 O    -0.00517    0.10981   -0.16402
 91 O     0.01737   -0.01425    0.01191
 92 O    -0.22811   -0.02090    0.04296
 93 O     0.18158    0.00965   -0.47555
 94 O    -0.02629   -0.03380   -0.01409
 95 V    -0.23993   -0.47201    0.00383
 96 O    -0.24585    0.45046   -0.24766
 97 O    -0.06733   -0.03255   -0.05331
 98 O    -0.12237   -0.29802   -0.04278
 99 H     0.03597   -0.03080    0.03928
100 V    -0.46726    0.11910    0.48521
101 O     0.25678    0.17751    0.52592
102 O    -0.22376   -0.17346    0.07889
103 O    -0.07364    0.07621    0.29878
104 H     0.07046   -0.11782    0.16256

System changes: positions 

Initializing position-dependent things.

Density initialized from wave functions
          .------------------------.  
         /|                        |  
        / |                        |  
       /  |                        |  
      /   |                        |  
     /    |                        |  
    /     |                        |  
   /      |                        |  
  /       |                        |  
 *        |                        |  
 |        |                        |  
 |        |                        |  
 |        |                    O   |  
 |        O    H  O         O      |  
 |        |   Oi      O  H  OV     |  
 |      O |   O V  O      Oi     Ti|  
 |        | TO     Oi     O    O   |  
 |        |      O     OTi    TiO  |  
 |   O    TiO     O    O    O      |  
 |        OTi O TiO  OTi O  Tii    |  
 |  O  O  |O   Tii    Ti   O O   O |  
 |      Tii O  OO   OOO   O        |  
 |      OO|  O    OTii    Tii      |  
 |   OTi  | Tii     O   OO     O   |  
 |    O   |O     OTi     Oi        |  
 |  Ti    TO   O  O    O     O     |  
 |  O    O|     Ti     Ti          |  
 |       Ti         O      O       |  
 |        |  O                     |  
 |        .------------------------.  
 |       /                        /   
 |      /                        /    
 |     /                        /     
 |    /                        /      
 |   /                        /       
 |  /                        /        
 | /                        /         
 |/                        /          
 *------------------------*           

Positions:
   0 O      9.920074    2.859372    7.434483    ( 0.0000,  0.0000,  0.0000)
   1 O      4.703702    0.971577    7.469165    ( 0.0000,  0.0000,  0.0000)
   2 Ti     3.045964    0.961424    8.370923    ( 0.0000,  0.0000,  0.0000)
   3 Ti     8.256635    2.812146    8.320410    ( 0.0000,  0.0000,  0.0000)
   4 Ti     0.625499    2.830796    8.956730    ( 0.0000,  0.0000,  0.0000)
   5 Ti     5.829009    0.946969    8.927379    ( 0.0000,  0.0000,  0.0000)
   6 O      1.072902    0.952021    8.952773    ( 0.0000,  0.0000,  0.0000)
   7 O      6.335410    2.848230    8.921244    ( 0.0000,  0.0000,  0.0000)
   8 O      9.215137    2.763376    9.841964    ( 0.0000,  0.0000,  0.0000)
   9 O      4.031969    0.981698    9.864869    ( 0.0000,  0.0000,  0.0000)
  10 O      7.755214    0.933546    8.276301    ( 0.0000,  0.0000,  0.0000)
  11 O      2.529554    2.878004    8.302644    ( 0.0000,  0.0000,  0.0000)
  12 O      1.088512    2.889746   11.028729    ( 0.0000,  0.0000,  0.0000)
  13 O      6.264193    0.962402   10.988648    ( 0.0000,  0.0000,  0.0000)
  14 Ti     4.408917    0.962657   11.973104    ( 0.0000,  0.0000,  0.0000)
  15 Ti     9.584118    2.831297   11.972714    ( 0.0000,  0.0000,  0.0000)
  16 Ti     2.019126    2.864740   12.557128    ( 0.0000,  0.0000,  0.0000)
  17 Ti     7.203973    0.931998   12.506783    ( 0.0000,  0.0000,  0.0000)
  18 O      2.551225    0.958006   12.759254    ( 0.0000,  0.0000,  0.0000)
  19 O      7.733764    2.855571   12.816351    ( 0.0000,  0.0000,  0.0000)
  20 O      0.365413    2.851416   13.410552    ( 0.0000,  0.0000,  0.0000)
  21 O      5.571705    0.953045   13.382805    ( 0.0000,  0.0000,  0.0000)
  22 O      9.178678    0.945397   11.981444    ( 0.0000,  0.0000,  0.0000)
  23 O      3.985758    2.894210   12.006009    ( 0.0000,  0.0000,  0.0000)
  24 O      9.936133    6.694505    7.407617    ( 0.0000,  0.0000,  0.0000)
  25 O      4.503699    4.786159    8.174697    ( 0.0000,  0.0000,  0.0000)
  26 Ti     2.727018    4.779935    7.989561    ( 0.0000,  0.0000,  0.0000)
  27 Ti     8.255316    6.722977    8.225997    ( 0.0000,  0.0000,  0.0000)
  28 Ti     0.628443    6.702559    9.011450    ( 0.0000,  0.0000,  0.0000)
  29 Ti     6.054505    4.776584    9.149569    ( 0.0000,  0.0000,  0.0000)
  30 O      1.029756    4.769125    8.932093    ( 0.0000,  0.0000,  0.0000)
  31 O      6.352466    6.703801    8.927074    ( 0.0000,  0.0000,  0.0000)
  32 O      9.188399    6.763256    9.776032    ( 0.0000,  0.0000,  0.0000)
  33 O      7.846254    4.767176    8.344870    ( 0.0000,  0.0000,  0.0000)
  34 O      2.511557    6.674708    8.280754    ( 0.0000,  0.0000,  0.0000)
  35 O      1.017222    6.556098   11.074820    ( 0.0000,  0.0000,  0.0000)
  36 O      5.792002    4.756709   10.941412    ( 0.0000,  0.0000,  0.0000)
  37 Ti     4.462426    4.767503   12.277612    ( 0.0000,  0.0000,  0.0000)
  38 Ti     9.525111    6.673055   11.854976    ( 0.0000,  0.0000,  0.0000)
  39 Ti     2.029910    6.628051   12.674147    ( 0.0000,  0.0000,  0.0000)
  40 Ti     7.467632    4.780808   13.060171    ( 0.0000,  0.0000,  0.0000)
  41 O      2.523550    4.733390   12.946488    ( 0.0000,  0.0000,  0.0000)
  42 O      7.645027    6.655962   12.627952    ( 0.0000,  0.0000,  0.0000)
  43 O      0.160610    6.722501   13.383761    ( 0.0000,  0.0000,  0.0000)
  44 O      5.695021    4.791426   13.604720    ( 0.0000,  0.0000,  0.0000)
  45 O      9.078902    4.739381   11.879880    ( 0.0000,  0.0000,  0.0000)
  46 O      3.875836    6.573784   11.856233    ( 0.0000,  0.0000,  0.0000)
  47 O      9.896993   10.527188    7.498460    ( 0.0000,  0.0000,  0.0000)
  48 O      4.742417    8.598617    7.423996    ( 0.0000,  0.0000,  0.0000)
  49 Ti     3.013213    8.596627    8.269509    ( 0.0000,  0.0000,  0.0000)
  50 Ti     8.262823   10.560004    8.319906    ( 0.0000,  0.0000,  0.0000)
  51 Ti     0.669416   10.521501    9.078782    ( 0.0000,  0.0000,  0.0000)
  52 Ti     5.872715    8.629302    8.877845    ( 0.0000,  0.0000,  0.0000)
[...]
  /       |                        |  
 *        |                        |  
 |        |                        |  
 |        |                        |  
 |        |                    O   |  
 |        O   H  O          O      |  
 |        |   Oi      O  H  OV     |  
 |     O  |   O V  O      Oi     Ti|  
 |        | Oi     Oi     O   O    |  
 |    O   | O    O     OTi    Ti   |  
 |        Ti     OO    O    O      |  
 |        OTi   Ti   O  O   Tii    |  
 |  O  O  |O  TiTi   Tii  O  O   O |  
 |      Tii    O   O OO   Ti       |  
 |      O | OO     Tii     Oi      |  
 |   OTi  | Tii     O   O      O   |  
 |    O   |O  O  OTi     Oi        |  
 |  Ti    TO      O   O      O     |  
 |  O     |    Ti     Ti           |  
 |      OTi         O     O        |  
 |        |  O                     |  
 |        .------------------------.  
 |       /                        /   
 |      /                        /    
 |     /                        /     
 |    /                        /      
 |   /                        /       
 |  /                        /        
 | /                        /         
 |/                        /          
 *------------------------*           

Positions:
   0 O      9.725324    2.812534    7.529737    ( 0.0000,  0.0000,  0.0000)
   1 O      4.556484    0.910294    7.502516    ( 0.0000,  0.0000,  0.0000)
   2 Ti     2.953615    0.905327    8.400941    ( 0.0000,  0.0000,  0.0000)
   3 Ti     8.135286    2.805157    8.464077    ( 0.0000,  0.0000,  0.0000)
   4 Ti     0.563093    2.745546    8.937036    ( 0.0000,  0.0000,  0.0000)
   5 Ti     5.747809    0.907861    8.916619    ( 0.0000,  0.0000,  0.0000)
   6 O      0.986814    0.914166    8.984532    ( 0.0000,  0.0000,  0.0000)
   7 O      6.145680    2.860672    8.853946    ( 0.0000,  0.0000,  0.0000)
   8 O      9.104889    2.810134    9.969420    ( 0.0000,  0.0000,  0.0000)
   9 O      3.901657    0.952017    9.924943    ( 0.0000,  0.0000,  0.0000)
  10 O      7.619681    0.909940    8.237784    ( 0.0000,  0.0000,  0.0000)
  11 O      2.332567    2.825469    7.935588    ( 0.0000,  0.0000,  0.0000)
  12 O      1.066768    2.840278   10.993076    ( 0.0000,  0.0000,  0.0000)
  13 O      6.217660    0.954232   10.958301    ( 0.0000,  0.0000,  0.0000)
  14 Ti     4.403195    0.907722   12.004130    ( 0.0000,  0.0000,  0.0000)
  15 Ti     9.583305    2.814728   12.037733    ( 0.0000,  0.0000,  0.0000)
  16 Ti     2.031510    2.807435   12.503779    ( 0.0000,  0.0000,  0.0000)
  17 Ti     7.201175    0.928431   12.468611    ( 0.0000,  0.0000,  0.0000)
  18 O      2.548986    0.927311   12.727883    ( 0.0000,  0.0000,  0.0000)
  19 O      7.715278    2.831271   12.770116    ( 0.0000,  0.0000,  0.0000)
  20 O      0.427924    2.797967   13.422898    ( 0.0000,  0.0000,  0.0000)
  21 O      5.596938    0.937989   13.388004    ( 0.0000,  0.0000,  0.0000)
  22 O      9.179813    0.924655   12.009753    ( 0.0000,  0.0000,  0.0000)
  23 O      4.011184    2.881611   11.981383    ( 0.0000,  0.0000,  0.0000)
  24 O      9.775241    6.651761    7.569868    ( 0.0000,  0.0000,  0.0000)
  25 O      4.108751    4.752364    9.062164    ( 0.0000,  0.0000,  0.0000)
  26 Ti     2.593711    4.752707    8.139949    ( 0.0000,  0.0000,  0.0000)
  27 Ti     8.167139    6.667192    8.424734    ( 0.0000,  0.0000,  0.0000)
  28 Ti     0.564497    6.730958    9.066212    ( 0.0000,  0.0000,  0.0000)
  29 Ti     5.950336    4.749282    9.246422    ( 0.0000,  0.0000,  0.0000)
  30 O      1.016237    4.745393    9.061933    ( 0.0000,  0.0000,  0.0000)
  31 O      6.154883    6.627991    8.858145    ( 0.0000,  0.0000,  0.0000)
  32 O      9.078228    6.685282    9.967404    ( 0.0000,  0.0000,  0.0000)
  33 O      7.672686    4.742413    8.271807    ( 0.0000,  0.0000,  0.0000)
  34 O      2.333292    6.664976    7.916216    ( 0.0000,  0.0000,  0.0000)
  35 O      1.011864    6.606808   11.120467    ( 0.0000,  0.0000,  0.0000)
  36 O      6.125564    4.730663   11.117959    ( 0.0000,  0.0000,  0.0000)
  37 Ti     4.402819    4.719005   12.361948    ( 0.0000,  0.0000,  0.0000)
  38 Ti     9.670727    6.657004   12.019788    ( 0.0000,  0.0000,  0.0000)
  39 Ti     2.070605    6.633953   12.899558    ( 0.0000,  0.0000,  0.0000)
  40 Ti     7.262577    4.759071   12.604352    ( 0.0000,  0.0000,  0.0000)
  41 O      2.544133    4.693963   12.965798    ( 0.0000,  0.0000,  0.0000)
  42 O      7.657773    6.627946   12.807287    ( 0.0000,  0.0000,  0.0000)
  43 O      0.363133    6.675778   13.543153    ( 0.0000,  0.0000,  0.0000)
  44 O      5.664406    4.735573   13.629758    ( 0.0000,  0.0000,  0.0000)
  45 O      9.161797    4.747572   12.036143    ( 0.0000,  0.0000,  0.0000)
  46 O      3.980900    6.536400   11.863639    ( 0.0000,  0.0000,  0.0000)
  47 O      9.759256   10.482740    7.496309    ( 0.0000,  0.0000,  0.0000)
  48 O      4.590646    8.581311    7.446382    ( 0.0000,  0.0000,  0.0000)
  49 Ti     2.947632    8.553429    8.277975    ( 0.0000,  0.0000,  0.0000)
  50 Ti     8.128386   10.464112    8.371283    ( 0.0000,  0.0000,  0.0000)
  51 Ti     0.610768   10.491385    8.906545    ( 0.0000,  0.0000,  0.0000)
  52 Ti     5.767509    8.559339    8.878822    ( 0.0000,  0.0000,  0.0000)
  53 O      1.016713    8.559824    9.017371    ( 0.0000,  0.0000,  0.0000)
  54 O      6.154914   10.441584    8.998313    ( 0.0000,  0.0000,  0.0000)
  55 O      9.112588   10.373224    9.872211    ( 0.0000,  0.0000,  0.0000)
  56 O      3.898795    8.466065    9.816937    ( 0.0000,  0.0000,  0.0000)
  57 O      7.608557    8.563996    8.118391    ( 0.0000,  0.0000,  0.0000)
  58 O      2.449020   10.455268    8.124964    ( 0.0000,  0.0000,  0.0000)
  59 O      1.017614   10.501304   11.080500    ( 0.0000,  0.0000,  0.0000)
  60 O      6.170633    8.450986   11.056258    ( 0.0000,  0.0000,  0.0000)
  61 Ti     4.311066    8.434604   11.729140    ( 0.0000,  0.0000,  0.0000)
  62 Ti     9.500877   10.534580   11.778468    ( 0.0000,  0.0000,  0.0000)
  63 Ti     2.128649   10.516786   12.578883    ( 0.0000,  0.0000,  0.0000)
  64 Ti     7.248511    8.526653   12.597130    ( 0.0000,  0.0000,  0.0000)
  65 O      2.520486    8.541746   12.544289    ( 0.0000,  0.0000,  0.0000)
  66 O      7.644546   10.449947   12.467100    ( 0.0000,  0.0000,  0.0000)
  67 O      0.122608   10.488338   13.507188    ( 0.0000,  0.0000,  0.0000)
  68 O      5.293409    8.517140   13.471075    ( 0.0000,  0.0000,  0.0000)
  69 O      9.098688    8.524450   11.983431    ( 0.0000,  0.0000,  0.0000)
  70 O      3.920839   10.468567   11.868775    ( 0.0000,  0.0000,  0.0000)
  71 O      9.714422   14.267403    7.531912    ( 0.0000,  0.0000,  0.0000)
  72 O      4.610388   12.364748    7.572459    ( 0.0000,  0.0000,  0.0000)
  73 Ti     3.006668   12.391373    8.421086    ( 0.0000,  0.0000,  0.0000)
  74 Ti     8.126682   14.291437    8.482787    ( 0.0000,  0.0000,  0.0000)
  75 Ti     0.587225   14.262205    8.912502    ( 0.0000,  0.0000,  0.0000)
  76 Ti     5.775657   12.375998    9.060134    ( 0.0000,  0.0000,  0.0000)
  77 O      0.986316   12.370954    8.959024    ( 0.0000,  0.0000,  0.0000)
  78 O      6.140893   14.300595    8.975229    ( 0.0000,  0.0000,  0.0000)
  79 O      9.120473   14.333551    9.960946    ( 0.0000,  0.0000,  0.0000)
  80 O      3.888804   12.414324    9.962828    ( 0.0000,  0.0000,  0.0000)
  81 O      7.622144   12.368877    8.271779    ( 0.0000,  0.0000,  0.0000)
  82 O      2.448391   14.302892    8.155221    ( 0.0000,  0.0000,  0.0000)
  83 O      1.074128   14.286579   10.954192    ( 0.0000,  0.0000,  0.0000)
  84 O      6.172325   12.416560   11.082480    ( 0.0000,  0.0000,  0.0000)
  85 Ti     4.484258   12.378904   11.993113    ( 0.0000,  0.0000,  0.0000)
  86 Ti     9.564625   14.291942   12.005802    ( 0.0000,  0.0000,  0.0000)
  87 Ti     2.032253   14.281009   12.458204    ( 0.0000,  0.0000,  0.0000)
  88 Ti     7.244944   12.390662   12.831442    ( 0.0000,  0.0000,  0.0000)
  89 O      2.506772   12.386296   12.767010    ( 0.0000,  0.0000,  0.0000)
  90 O      7.706567   14.316442   12.751803    ( 0.0000,  0.0000,  0.0000)
  91 O      0.431389   14.284313   13.382663    ( 0.0000,  0.0000,  0.0000)
  92 O      5.536291   12.306789   13.500626    ( 0.0000,  0.0000,  0.0000)
  93 O      9.165597   12.390427   11.864291    ( 0.0000,  0.0000,  0.0000)
  94 O      4.024016   14.297253   12.023962    ( 0.0000,  0.0000,  0.0000)
  95 V      3.947098    8.501456   14.738293    ( 0.0000,  0.0000,  0.0000)
  96 O      3.041553    7.029258   14.585325    ( 0.0000,  0.0000,  0.0000)
  97 O      2.878239   10.070767   14.583284    ( 0.0000,  0.0000,  0.0000)
  98 O      4.617208    8.572728   16.176268    ( 0.0000,  0.0000,  0.0000)
  99 H      2.906123   10.732869   15.299691    ( 0.0000,  0.0000,  0.0000)
 100 V      9.117539   10.557268   14.759034    ( 0.0000,  0.0000,  0.0000)
 101 O      8.206324   12.011153   14.511673    ( 0.0000,  0.0000,  0.0000)
 102 O      8.019027    9.013629   14.614868    ( 0.0000,  0.0000,  0.0000)
 103 O      9.763945   10.547203   16.208177    ( 0.0000,  0.0000,  0.0000)
 104 H      7.973029    8.392227   15.365787    ( 0.0000,  0.0000,  0.0000)

Unit cell:
           periodic     x           y           z      points  spacing
  1. axis:    yes   10.341746    0.000000    0.000000    54     0.1915
  2. axis:    yes   -0.000000   15.289380    0.000000    80     0.1911
  3. axis:    yes    0.000000    0.000000   23.497201   125     0.1880

  Lengths:  10.341746  15.289380  23.497201
  Angles:   90.000000  90.000000  90.000000

Effective grid spacing dv^(1/3) = 0.1902

                     log10-error:    total        iterations:
           time      wfs    density  energy       fermi  poisson
iter:   1  04:10:46  -4.91   +inf  -863.963405    3             
iter:   2  04:11:14  -5.79  -4.21  -863.963626    2             
iter:   3  04:11:43  -6.33  -4.26  -863.963668    2             
iter:   4  04:12:12  -6.22  -4.36  -863.963704    3             
iter:   5  04:12:40  -6.96  -4.51  -863.963685    2             
iter:   6  04:13:09  -7.15  -4.63  -863.963637    2             
iter:   7  04:13:37  -7.66  -4.84  -863.963670    2             

Converged after 7 iterations.

Dipole moment: (-28.379385, -9.141078, -0.872139) |e|*Ang

Energy contributions relative to reference atoms: (reference = -935653.237240)

Kinetic:       +648.609181
Potential:     -813.569812
External:        +0.000000
XC:            -704.941986
Entropy (-ST):   -0.595758
Local:           +6.236827
--------------------------
Free energy:   -864.261550
Extrapolated:  -863.963670

Fermi level: -1.14532

Showing all kpts
 Kpt  Band  Eigenvalues  Occupancy
  0   411     -3.84447    1.00000
  0   412     -1.06925    0.31851
  0   413     -1.00902    0.20375
  0   414     -0.98410    0.16629

  1   411     -3.84448    1.00000
  1   412     -1.07380    0.32845
  1   413     -1.00360    0.19510
  1   414     -0.97919    0.15959



Forces in eV/Ang:
  0 O    -0.00254    0.00211   -0.00014
  1 O     0.00066   -0.00115   -0.00234
  2 Ti   -0.00303   -0.00205   -0.00001
  3 Ti    0.00436    0.00150   -0.00077
  4 Ti    0.00059   -0.00170   -0.00225
  5 Ti    0.00212   -0.00336    0.00187
  6 O     0.00137   -0.00306    0.00130
  7 O    -0.00179   -0.00438    0.00382
  8 O    -0.00401    0.00040    0.00426
  9 O    -0.00232   -0.00417    0.00130
 10 O    -0.00182   -0.00512   -0.00165
 11 O    -0.00216   -0.00148    0.00072
 12 O    -0.00084   -0.00132   -0.00302
 13 O     0.00159   -0.00022   -0.00235
 14 Ti   -0.00360    0.00378   -0.00151
 15 Ti   -0.00453   -0.00346    0.00123
 16 Ti   -0.00077    0.00115   -0.00245
 17 Ti    0.00019    0.00275   -0.00334
 18 O    -0.00192   -0.00319    0.00285
 19 O    -0.00143   -0.00414    0.00208
 20 O    -0.00048    0.00134    0.00082
 21 O    -0.00140    0.00186   -0.00063
 22 O    -0.00194   -0.00510   -0.00166
 23 O    -0.00107   -0.00168    0.00252
 24 O    -0.00072   -0.00014   -0.00276
 25 O     0.00088    0.00118   -0.00643
 26 Ti    0.00099   -0.00152    0.00011
 27 Ti    0.00304    0.00070    0.00453
 28 Ti    0.00429   -0.00195    0.00105
 29 Ti    0.00214   -0.00258   -0.00212
 30 O    -0.00129   -0.00281   -0.00086
 31 O     0.00196   -0.00126   -0.00109
 32 O     0.00013   -0.00028    0.00026
 33 O    -0.00520    0.00127   -0.00185
 34 O     0.00068   -0.00047    0.00075
 35 O    -0.00043   -0.00052   -0.00179
 36 O     0.00073   -0.00570    0.00330
 37 Ti    0.00022   -0.00221   -0.00467
 38 Ti   -0.00162    0.00007   -0.00118
 39 Ti   -0.00072   -0.00187    0.00004
 40 Ti   -0.00172   -0.00412    0.00065
 41 O    -0.00370   -0.00116    0.00098
 42 O    -0.00194    0.00004   -0.00029
 43 O    -0.00186   -0.00049    0.00131
 44 O     0.00182   -0.00298    0.00245
 45 O     0.00086   -0.00265   -0.00060
 46 O    -0.00165   -0.00227    0.00054
 47 O     0.00039    0.00014   -0.00098
 48 O     0.00224   -0.00481    0.00099
 49 Ti   -0.00075    0.00232   -0.00108
 50 Ti    0.00075   -0.00255   -0.00101
 51 Ti   -0.00091   -0.00113   -0.00270
 52 Ti    0.00075   -0.00022    0.00393
 53 O    -0.00079   -0.00284    0.00017
 54 O    -0.00137   -0.00176   -0.00042
 55 O    -0.00149   -0.00218    0.00051
 56 O    -0.00128    0.00224   -0.00004
 57 O     0.00178   -0.00025   -0.00187
 58 O     0.00061   -0.00354   -0.00389
 59 O    -0.00277   -0.00277    0.00083
 60 O    -0.00215    0.00192   -0.00118
 61 Ti   -0.00165   -0.00292    0.00250
 62 Ti   -0.00109   -0.00108   -0.00293
 63 Ti   -0.00099    0.00248   -0.00063
 64 Ti    0.00015   -0.00203    0.00111
 65 O    -0.00186    0.00206    0.00177
 66 O     0.00077   -0.00600   -0.00037
 67 O    -0.00438   -0.00231    0.00257
 68 O    -0.00302   -0.00052    0.00261
 69 O     0.00105    0.00025    0.00237
 70 O    -0.00299   -0.00367    0.00346
 71 O    -0.00159   -0.00475   -0.00082
 72 O     0.00032   -0.00397   -0.00250
 73 Ti    0.00048    0.00002   -0.00249
 74 Ti    0.00015    0.00145    0.00143
 75 Ti   -0.00005   -0.00205    0.00098
 76 Ti    0.00070    0.00073    0.00305
 77 O    -0.00080   -0.00712    0.00372
 78 O    -0.00245   -0.00498    0.00054
 79 O    -0.00353   -0.00066   -0.00229
 80 O    -0.00039    0.00004   -0.00337
 81 O    -0.00023   -0.00295    0.00130
 82 O     0.00058   -0.00549   -0.00142
 83 O     0.00001   -0.00041   -0.00049
 84 O    -0.00189   -0.00046    0.00197
 85 Ti    0.00082    0.00021    0.00086
 86 Ti    0.00065    0.00048    0.00061
 87 Ti   -0.00019    0.00261    0.00229
 88 Ti    0.00113    0.00086    0.00313
 89 O    -0.00043   -0.00380    0.00019
 90 O    -0.00271   -0.00406    0.00164
 91 O    -0.00222   -0.00176   -0.00289
 92 O    -0.00071    0.00071   -0.00097
 93 O    -0.00198   -0.00299    0.00145
 94 O    -0.00124   -0.00477   -0.00099
 95 V     0.00080    0.00028    0.00700
 96 O     0.00095   -0.00134   -0.00384
 97 O    -0.00170   -0.00173    0.00183
 98 O    -0.00477   -0.00181   -0.00592
 99 H    -0.00090   -0.00154   -0.00120
100 V    -0.00106   -0.00189   -0.00068
101 O    -0.00041    0.00239   -0.00162
102 O    -0.00018    0.00026   -0.00233
103 O    -0.00249    0.00117   -0.00719
104 H    -0.00127   -0.00172    0.00276

Timing:                                      incl.     excl.
-------------------------------------------------------------------
Density initialized from wave functions:   345.087   345.084   0.6% |
 Symmetrize density:                         0.003     0.003   0.0% |
Forces:                                   2169.588  2169.588   3.9% |-|
Hamiltonian:                               308.860     1.838   0.0% |
 Atomic:                                    49.883     0.153   0.0% |
  XC Correction:                            49.729    49.729   0.1% |
 Calculate atomic Hamiltonians:            202.897   202.897   0.4% |
 Communicate:                                6.585     6.585   0.0% |
 Initialize Hamiltonian:                     0.001     0.001   0.0% |
 Poisson:                                    0.505     0.505   0.0% |
 XC 3D grid:                                47.150    47.150   0.1% |
LCAO initialization:                        93.296     1.513   0.0% |
 LCAO eigensolver:                          18.815     0.013   0.0% |
  Calculate projections:                     0.000     0.000   0.0% |
  DenseAtomicCorrection:                     0.000     0.000   0.0% |
  Distribute overlap matrix:                 9.804     9.804   0.0% |
  Orbital Layouts:                           8.430     8.430   0.0% |
  Potential matrix:                          0.257     0.257   0.0% |
  Sum over cells:                            0.312     0.312   0.0% |
 LCAO to grid:                              71.039    71.039   0.1% |
 Set positions (LCAO WFS):                   1.929     1.439   0.0% |
  Basic WFS set positions:                   0.003     0.003   0.0% |
  Basis functions set positions:             0.000     0.000   0.0% |
  P tci:                                     0.001     0.001   0.0% |
  ST tci:                                    0.333     0.333   0.0% |
  mktci:                                     0.152     0.152   0.0% |
PWDescriptor:                                0.111     0.111   0.0% |
Redistribute:                                0.092     0.092   0.0% |
SCF-cycle:                               51797.706    10.834   0.0% |
 Davidson:                               43880.519 11321.723  20.5% |-------|
  Apply H:                                8953.205  8715.964  15.8% |-----|
   HMM T:                                  237.241   237.241   0.4% |
  Subspace diag:                          5679.602     0.212   0.0% |
   calc_h_matrix:                         3853.923   853.377   1.5% ||
    Apply H:                              3000.546  2912.678   5.3% |-|
     HMM T:                                 87.868    87.868   0.2% |
   diagonalize:                            212.444   212.444   0.4% |
   rotate_psi:                            1613.024  1613.024   2.9% ||
  calc. matrices:                        11988.004  6038.984  11.0% |---|
   Apply H:                               5949.020  5789.108  10.5% |---|
    HMM T:                                 159.913   159.913   0.3% |
  diagonalize:                            2667.884  2667.884   4.8% |-|
  rotate_psi:                             3270.101  3270.101   5.9% |-|
 Density:                                 4021.464     0.037   0.0% |
  Atomic density matrices:                  13.994    13.994   0.0% |
  Mix:                                    2488.949  2488.949   4.5% |-|
  Multipole moments:                         0.980     0.980   0.0% |
  Pseudo density:                         1517.504  1517.469   2.8% ||
   Symmetrize density:                       0.036     0.036   0.0% |
 Hamiltonian:                             3562.381    21.251   0.0% |
  Atomic:                                  575.078     1.814   0.0% |
   XC Correction:                          573.263   573.263   1.0% |
  Calculate atomic Hamiltonians:          2338.355  2338.355   4.2% |-|
  Communicate:                              77.538    77.538   0.1% |
  Poisson:                                   5.878     5.878   0.0% |
  XC 3D grid:                              544.282   544.282   1.0% |
 Orthonormalize:                           322.508     0.030   0.0% |
  calc_s_matrix:                            35.308    35.308   0.1% |
  inverse-cholesky:                          8.313     8.313   0.0% |
  projections:                             215.106   215.106   0.4% |
  rotate_psi_s:                             63.752    63.752   0.1% |
Set symmetry:                                0.001     0.001   0.0% |
Other:                                     382.528   382.528   0.7% |
-------------------------------------------------------------------
Total:                                             55097.269 100.0%

Memory usage: 1.38 GiB
Date: Tue Mar  3 04:13:52 2020
