
  ___ ___ ___ _ _ _  
 |   |   |_  | | | | 
 | | | | | . | | | | 
 |__ |  _|___|_____|  1.5.1
 |___|_|             

User:   siva@s83n16.grendel.cscaa.dk
Date:   Fri May 24 19:03:55 2019
Arch:   x86_64
Pid:    12724
Python: 3.6.3
gpaw:   /home/siva/gpaw-1.5.1/gpaw
_gpaw:  /home/siva/gpaw-1.5.1/build/bin.linux-x86_64-3.6/gpaw-python
ase:    /home/siva/env1.5/lib/python3.6/site-packages/ase (version 3.17.0)
numpy:  /home/siva/env1.5/lib/python3.6/site-packages/numpy (version 1.16.0)
scipy:  /home/siva/env1.5/lib/python3.6/site-packages/scipy (version 1.2.0)
units:  Angstrom and eV
cores:  28
Extra parameters: {'blacs': True}

Input parameters:
  basis: dzp
  kpts: [3 3 1]
  mode: {ecut: 500.0,
         gammacentered: False,
         name: pw}
  xc: PBE

System changes: positions, numbers, cell, pbc, initial_charges, initial_magmoms 

Initialize ...

O-setup:
  name: Oxygen
  id: 32ecd46bf208036f09c70b0ec9a88b78
  Z: 8
  valence: 6
  core: 2
  charge: 0.0
  file: /home/wido/sw/gpaw/basis/gpaw-setups-0.9.20000/O.PBE.gz
  cutoffs: 0.67(comp), 1.17(filt), 0.83(core), lmax=2
  valence states:
                energy  radius
    2s(2.00)   -23.961   0.688
    2p(4.00)    -9.029   0.598
    *s           3.251   0.688
    *p          18.182   0.598
    *d           0.000   0.619

  LCAO basis set for O:
    Name: dzp
    File: /home/wido/sw/gpaw/basis/gpaw-setups-0.9.20000/O.dzp.basis.gz
    Number of radial functions: 5
    Number of spherical harmonics: 13
      l=0, rc=4.3438 Bohr: 2s-sz confined orbital
      l=1, rc=5.3906 Bohr: 2p-sz confined orbital
      l=0, rc=2.2969 Bohr: 2s-dz split-valence wave
      l=1, rc=2.8906 Bohr: 2p-dz split-valence wave
      l=2, rc=5.3906 Bohr: d-type Gaussian polarization

Ti-setup:
  name: Titanium
  id: d282db07e62ae71292040bf25b25ccdd
  Z: 22
  valence: 12
  core: 10
  charge: 0.0
  file: /home/wido/sw/gpaw/basis/gpaw-setups-0.9.20000/Ti.PBE.gz
  cutoffs: 1.22(comp), 2.23(filt), 1.02(core), lmax=2
  valence states:
                energy  radius
    3s(2.00)   -62.623   1.270
    4s(2.00)    -4.466   1.270
    3p(6.00)   -38.862   1.058
    4p(0.00)    -1.466   1.058
    3d(2.00)    -4.258   1.058
    *d          22.953   1.058

  LCAO basis set for Ti:
    Name: dzp
    File: /home/wido/sw/gpaw/basis/gpaw-setups-0.9.20000/Ti.dzp.basis.gz
    Number of radial functions: 11
    Number of spherical harmonics: 29
      l=0, rc=3.4375 Bohr: 3s-sz confined orbital
      l=0, rc=9.9062 Bohr: 4s-sz confined orbital
      l=1, rc=3.8906 Bohr: 3p-sz confined orbital
      l=1, rc=13.1094 Bohr: 4p-sz confined orbital
      l=2, rc=6.6250 Bohr: 3d-sz confined orbital
      l=0, rc=2.1406 Bohr: 3s-dz split-valence wave
      l=0, rc=6.0156 Bohr: 4s-dz split-valence wave
      l=1, rc=2.3125 Bohr: 3p-dz split-valence wave
      l=1, rc=8.1094 Bohr: 4p-dz split-valence wave
      l=2, rc=3.8594 Bohr: 3d-dz split-valence wave
      l=1, rc=9.9062 Bohr: p-type Gaussian polarization

V-setup:
  name: Vanadium
  id: a8354638d66c808f8c867a10b63fd727
  Z: 23
  valence: 13
  core: 10
  charge: 0.0
  file: /home/wido/sw/gpaw/basis/gpaw-setups-0.9.20000/V.PBE.gz
  cutoffs: 1.19(comp), 2.14(filt), 0.96(core), lmax=2
  valence states:
                energy  radius
    3s(2.00)   -70.222   1.254
    4s(2.00)    -4.702   1.254
    3p(6.00)   -44.043   1.281
    4p(0.00)    -1.444   1.281
    3d(3.00)    -5.164   1.169
    *d          22.047   1.169

  LCAO basis set for V:
    Name: dzp
    File: /home/wido/sw/gpaw/basis/gpaw-setups-0.9.20000/V.dzp.basis.gz
    Number of radial functions: 11
    Number of spherical harmonics: 29
      l=0, rc=3.2656 Bohr: 3s-sz confined orbital
      l=0, rc=9.5312 Bohr: 4s-sz confined orbital
      l=1, rc=3.6719 Bohr: 3p-sz confined orbital
      l=1, rc=12.8750 Bohr: 4p-sz confined orbital
      l=2, rc=6.0938 Bohr: 3d-sz confined orbital
      l=0, rc=2.0625 Bohr: 3s-dz split-valence wave
      l=0, rc=5.7656 Bohr: 4s-dz split-valence wave
      l=1, rc=2.4062 Bohr: 3p-dz split-valence wave
      l=1, rc=7.8906 Bohr: 4p-dz split-valence wave
      l=2, rc=3.6562 Bohr: 3d-dz split-valence wave
      l=1, rc=9.5312 Bohr: p-type Gaussian polarization

H-setup:
  name: Hydrogen
  id: d65de229564ff8ea4db303e23b6d1ecf
  Z: 1
  valence: 1
  core: 0
  charge: 0.0
  file: /home/wido/sw/gpaw/basis/gpaw-setups-0.9.20000/H.PBE.gz
  cutoffs: 0.48(comp), 0.85(filt), 0.53(core), lmax=2
  valence states:
                energy  radius
    1s(1.00)    -6.494   0.476
    *s          20.717   0.476
    *p           0.000   0.476

  LCAO basis set for H:
    Name: dzp
    File: /home/wido/sw/gpaw/basis/gpaw-setups-0.9.20000/H.dzp.basis.gz
    Number of radial functions: 3
    Number of spherical harmonics: 5
      l=0, rc=6.4219 Bohr: 1s-sz confined orbital
      l=0, rc=3.6094 Bohr: 1s-dz split-valence wave
      l=1, rc=6.4219 Bohr: p-type Gaussian polarization

Reference energy: -1046916.965077

Spin-paired calculation

Occupation numbers:
  Fermi-Dirac: width=0.1000 eV

Convergence criteria:
  Maximum total energy change: 0.0005 eV / electron
  Maximum integral of absolute density change: 0.0001 electrons
  Maximum integral of absolute eigenstate change: 4e-08 eV^2
  Maximum number of iterations: 333

Symmetries present (total): 1

  ( 1  0  0)
  ( 0  1  0)
  ( 0  0  1)

9 k-points: 3 x 3 x 1 Monkhorst-Pack grid
5 k-points in the irreducible part of the Brillouin zone
       k-points in crystal coordinates                weights
   0:     0.00000000    0.00000000    0.00000000          1/9
   1:     0.00000000    0.33333333    0.00000000          2/9
   2:     0.33333333   -0.33333333    0.00000000          2/9
   3:     0.33333333    0.00000000    0.00000000          2/9
   4:     0.33333333    0.33333333    0.00000000          2/9

Wave functions: Plane wave expansion
  Cutoff energy: 500.000 eV
  Number of coefficients (min, max): 70673, 70768
  Pulay-stress correction: 0.000000 eV/Ang^3 (de/decut=0.000000)
  Using FFTW library
  ScaLapack parameters: grid=1x1, blocksize=None
  Wavefunction extrapolation:
    Improved wavefunction reuse through dual PAW basis 

Eigensolver
   Davidson(niter=2, smin=None, normalize=True) 

Densities:
  Coarse grid: 54*60*125 grid
  Fine grid: 108*120*250 grid
  Total Charge: 0.000000 

Density mixing:
  Method: separate
  Backend: pulay
  Linear mixing parameter: 0.05
  Mixing with 5 old densities
  Damping of long wave oscillations: 50 

Hamiltonian:
  XC and Coulomb potentials evaluated on a 108*120*250 grid
  Using the PBE Exchange-Correlation functional
 

XC parameters: PBE with 2 nearest neighbor stencil

Memory estimate:
  Process memory now: 275.40 MiB
  Calculator: 3721.44 MiB
    Density: 8.90 MiB
      Arrays: 2.89 MiB
      Localized functions: 4.89 MiB
      Mixer: 1.11 MiB
    Hamiltonian: 2.03 MiB
      Arrays: 1.89 MiB
      XC: 0.00 MiB
      Poisson: 0.00 MiB
      vbar: 0.14 MiB
    Wavefunctions: 3710.51 MiB
      Arrays psit_nG: 3028.93 MiB
      Eigensolver: 659.23 MiB
      Projections: 2.61 MiB
      Projectors: 2.80 MiB
      PW-descriptor: 16.94 MiB

Total number of cores used: 28
Domain decomposition: 2 x 2 x 7

Number of atoms: 118
Number of atomic orbitals: 2126
Number of bands in calculation: 561
Bands to converge: occupied states only
Number of valence electrons: 928

... initialized

Initializing position-dependent things.

Density initialized from atomic densities
Creating initial wave functions:
  561 bands from LCAO basis set

                                                
                                                
                                                
                                                
                                                
                                                
                           O                    
                     O   V O  H                 
             O                 O H              
                  TiO    O      O               
                 O V  O              Ti         
           O   Ti O          Ti   O             
               O      OiO    O                  
         O     OO   OTi    Tii   OTi            
             Tii   TiO    OOO   O               
             OO   OO    O Ti    Tii             
          O Ti     Ti   TiO  O O     O          
                OTiO   O      TiO               
           O    TiO   OTiO  O O    O Ti         
         Ti     O    O Oi    Ti     O           
              OTi          OTi    O             
             O O    O O         O Ti            
                    Ti     Oi     O             
             Oi     O    O      Ti              
           O     OTi    Ti     O                
          Ti          O      O                  
               O                                
                                                
                                                
                                                
                                                

Positions:
   0 O      8.476572    1.911173    6.000000    ( 0.0000,  0.0000,  0.0000)
   1 O      3.305699    0.000000    6.000000    ( 0.0000,  0.0000,  0.0000)
   2 Ti     1.412752    0.000000    6.752957    ( 0.0000,  0.0000,  0.0000)
   3 Ti     6.583625    1.911173    6.752957    ( 0.0000,  0.0000,  0.0000)
   4 Ti     9.522250    1.911173    7.640878    ( 0.0000,  0.0000,  0.0000)
   5 Ti     4.351376    0.000000    7.640878    ( 0.0000,  0.0000,  0.0000)
   6 O      9.861551    0.000000    7.505914    ( 0.0000,  0.0000,  0.0000)
   7 O      4.690678    1.911173    7.505914    ( 0.0000,  0.0000,  0.0000)
   8 O      7.629303    1.911173    8.393834    ( 0.0000,  0.0000,  0.0000)
   9 O      2.458430    0.000000    8.393834    ( 0.0000,  0.0000,  0.0000)
  10 O      6.244323    0.000000    6.887921    ( 0.0000,  0.0000,  0.0000)
  11 O      1.073450    1.911173    6.887921    ( 0.0000,  0.0000,  0.0000)
  12 O      9.813300    1.904255    9.610465    ( 0.0000,  0.0000,  0.0000)
  13 O      4.623264   11.470588    9.581049    ( 0.0000,  0.0000,  0.0000)
  14 Ti     2.714555   11.528607   10.339748    ( 0.0000,  0.0000,  0.0000)
  15 Ti     8.018847    1.909506   10.371963    ( 0.0000,  0.0000,  0.0000)
  16 Ti     0.503986    1.913915   11.288323    ( 0.0000,  0.0000,  0.0000)
  17 Ti     5.720595   11.394227   11.077734    ( 0.0000,  0.0000,  0.0000)
  18 O      0.901533   11.466011   11.105174    ( 0.0000,  0.0000,  0.0000)
  19 O      6.081668    1.913779   11.054855    ( 0.0000,  0.0000,  0.0000)
  20 O      9.012194    1.963928   11.974949    ( 0.0000,  0.0000,  0.0000)
  21 O      3.839656   11.455791   11.931253    ( 0.0000,  0.0000,  0.0000)
  22 O      7.577966   11.456038   10.452259    ( 0.0000,  0.0000,  0.0000)
  23 O      2.364814    1.911042   10.455169    ( 0.0000,  0.0000,  0.0000)
  24 O      0.867794    1.909915   13.186746    ( 0.0000,  0.0000,  0.0000)
  25 O      6.088979    0.118465   13.048780    ( 0.0000,  0.0000,  0.0000)
  26 Ti     4.096953    0.114292   13.798720    ( 0.0000,  0.0000,  0.0000)
  27 Ti     9.515485    1.947873   14.076222    ( 0.0000,  0.0000,  0.0000)
  28 Ti     1.960445    1.919476   14.993462    ( 0.0000,  0.0000,  0.0000)
  29 Ti     7.087156    0.021215   14.510977    ( 0.0000,  0.0000,  0.0000)
  30 O      2.382858    0.039729   14.782475    ( 0.0000,  0.0000,  0.0000)
  31 O      7.485527    1.904222   14.833765    ( 0.0000,  0.0000,  0.0000)
  32 O      0.214978    1.908335   15.584502    ( 0.0000,  0.0000,  0.0000)
  33 O      5.375007   11.206524   15.456121    ( 0.0000,  0.0000,  0.0000)
  34 O      9.029807    0.034592   13.976996    ( 0.0000,  0.0000,  0.0000)
  35 O      3.898687    1.904224   13.939882    ( 0.0000,  0.0000,  0.0000)
  36 O      8.476572    5.733518    6.000000    ( 0.0000,  0.0000,  0.0000)
  37 O      3.305699    3.822345    6.000000    ( 0.0000,  0.0000,  0.0000)
  38 Ti     1.412752    3.822345    6.752957    ( 0.0000,  0.0000,  0.0000)
  39 Ti     6.583625    5.733518    6.752957    ( 0.0000,  0.0000,  0.0000)
  40 Ti     9.522250    5.733518    7.640878    ( 0.0000,  0.0000,  0.0000)
  41 Ti     4.351376    3.822345    7.640878    ( 0.0000,  0.0000,  0.0000)
  42 O      9.861551    3.822345    7.505914    ( 0.0000,  0.0000,  0.0000)
  43 O      4.690678    5.733518    7.505914    ( 0.0000,  0.0000,  0.0000)
  44 O      7.629303    5.733518    8.393834    ( 0.0000,  0.0000,  0.0000)
  45 O      2.458430    3.822345    8.393834    ( 0.0000,  0.0000,  0.0000)
  46 O      6.244323    3.822345    6.887921    ( 0.0000,  0.0000,  0.0000)
  47 O      1.073450    5.733518    6.887921    ( 0.0000,  0.0000,  0.0000)
  48 O      9.813587    5.747041    9.615503    ( 0.0000,  0.0000,  0.0000)
  49 O      4.643880    3.830441    9.560096    ( 0.0000,  0.0000,  0.0000)
  50 Ti     2.698884    3.900221   10.317040    ( 0.0000,  0.0000,  0.0000)
  51 Ti     8.006111    5.736408   10.376556    ( 0.0000,  0.0000,  0.0000)
  52 Ti     0.489877    5.754525   11.283077    ( 0.0000,  0.0000,  0.0000)
  53 Ti     5.734919    3.749952   11.050860    ( 0.0000,  0.0000,  0.0000)
  54 O      0.907847    3.836465   11.102198    ( 0.0000,  0.0000,  0.0000)
  55 O      6.086570    5.735679   11.076842    ( 0.0000,  0.0000,  0.0000)
  56 O      9.012277    5.725830   11.983281    ( 0.0000,  0.0000,  0.0000)
  57 O      3.868380    3.832666   11.873062    ( 0.0000,  0.0000,  0.0000)
  58 O      7.576321    3.824319   10.436744    ( 0.0000,  0.0000,  0.0000)
  59 O      2.368353    5.742632   10.453585    ( 0.0000,  0.0000,  0.0000)
  60 O      0.852111    5.769669   13.211070    ( 0.0000,  0.0000,  0.0000)
  61 O      6.118879    3.808071   13.072657    ( 0.0000,  0.0000,  0.0000)
  62 Ti     4.055565    3.947833   13.717804    ( 0.0000,  0.0000,  0.0000)
  63 Ti     9.518082    5.712838   14.084342    ( 0.0000,  0.0000,  0.0000)
  64 Ti     1.954738    5.761301   15.008454    ( 0.0000,  0.0000,  0.0000)
  65 Ti     6.987165    3.780209   14.597820    ( 0.0000,  0.0000,  0.0000)
  66 O      2.321546    3.839747   14.383201    ( 0.0000,  0.0000,  0.0000)
  67 O      7.385059    5.701933   14.800689    ( 0.0000,  0.0000,  0.0000)
  68 O      0.210014    5.756304   15.607403    ( 0.0000,  0.0000,  0.0000)
  69 O      5.211149    3.828310   15.509636    ( 0.0000,  0.0000,  0.0000)
  70 O      8.963410    3.837446   14.140032    ( 0.0000,  0.0000,  0.0000)
  71 O      3.893347    5.781139   13.941722    ( 0.0000,  0.0000,  0.0000)
  72 O      8.476572    9.555862    6.000000    ( 0.0000,  0.0000,  0.0000)
  73 O      3.305699    7.644690    6.000000    ( 0.0000,  0.0000,  0.0000)
  74 Ti     1.412752    7.644690    6.752957    ( 0.0000,  0.0000,  0.0000)
  75 Ti     6.583625    9.555862    6.752957    ( 0.0000,  0.0000,  0.0000)
  76 Ti     9.522250    9.555862    7.640878    ( 0.0000,  0.0000,  0.0000)
  77 Ti     4.351376    7.644690    7.640878    ( 0.0000,  0.0000,  0.0000)
  78 O      9.861551    7.644690    7.505914    ( 0.0000,  0.0000,  0.0000)
  79 O      4.690678    9.555862    7.505914    ( 0.0000,  0.0000,  0.0000)
  80 O      7.629303    9.555862    8.393834    ( 0.0000,  0.0000,  0.0000)
  81 O      2.458430    7.644690    8.393834    ( 0.0000,  0.0000,  0.0000)
  82 O      6.244323    7.644690    6.887921    ( 0.0000,  0.0000,  0.0000)
  83 O      1.073450    9.555862    6.887921    ( 0.0000,  0.0000,  0.0000)
  84 O      9.807145    9.559831    9.620861    ( 0.0000,  0.0000,  0.0000)
  85 O      4.633999    7.652379    9.594220    ( 0.0000,  0.0000,  0.0000)
  86 Ti     2.748982    7.722811   10.324588    ( 0.0000,  0.0000,  0.0000)
  87 Ti     8.031235    9.551155   10.352923    ( 0.0000,  0.0000,  0.0000)
  88 Ti     0.511013    9.546795   11.337960    ( 0.0000,  0.0000,  0.0000)
  89 Ti     5.733526    7.583090   11.135570    ( 0.0000,  0.0000,  0.0000)
  90 O      0.903963    7.655547   11.108539    ( 0.0000,  0.0000,  0.0000)
  91 O      6.080975    9.557453   11.092363    ( 0.0000,  0.0000,  0.0000)
  92 O      9.046863    9.526980   12.004191    ( 0.0000,  0.0000,  0.0000)
  93 O      3.850716    7.662103   11.935373    ( 0.0000,  0.0000,  0.0000)
  94 O      7.570623    7.648619   10.451629    ( 0.0000,  0.0000,  0.0000)
  95 O      2.373244    9.554315   10.451542    ( 0.0000,  0.0000,  0.0000)
  96 O      0.932947    9.573550   13.236463    ( 0.0000,  0.0000,  0.0000)
  97 O      6.088392    7.609667   13.123586    ( 0.0000,  0.0000,  0.0000)
  98 Ti     4.151130    7.723409   13.791714    ( 0.0000,  0.0000,  0.0000)
  99 Ti     9.472652    9.615959   14.086867    ( 0.0000,  0.0000,  0.0000)
 100 Ti     1.945451    9.548097   15.000666    ( 0.0000,  0.0000,  0.0000)
 101 Ti     7.139671    7.548897   14.659865    ( 0.0000,  0.0000,  0.0000)
 102 O      2.377346    7.641376   14.793771    ( 0.0000,  0.0000,  0.0000)
 103 O      7.576080    9.638221   14.774980    ( 0.0000,  0.0000,  0.0000)
 104 O      0.216534    9.566930   15.616050    ( 0.0000,  0.0000,  0.0000)
 105 O      5.344288    7.991751   15.468318    ( 0.0000,  0.0000,  0.0000)
 106 O      8.988216    7.630968   14.137767    ( 0.0000,  0.0000,  0.0000)
 107 O      3.819315    9.560875   13.929839    ( 0.0000,  0.0000,  0.0000)
 108 V      4.892978    9.588748   16.262915    ( 0.0000,  0.0000,  0.0000)
 109 V      3.864790    3.825913   16.802541    ( 0.0000,  0.0000,  0.0000)
 110 O      7.744053    7.670763   16.779210    ( 0.0000,  0.0000,  0.0000)
 111 O      4.509921    3.821699   18.257910    ( 0.0000,  0.0000,  0.0000)
 112 O      3.196052    9.583011   16.563677    ( 0.0000,  0.0000,  0.0000)
 113 O      2.858433    2.371457   16.562679    ( 0.0000,  0.0000,  0.0000)
 114 O      5.766870    9.532505   17.622318    ( 0.0000,  0.0000,  0.0000)
 115 O      2.860427    5.286206   16.566713    ( 0.0000,  0.0000,  0.0000)
 116 H      8.666685    7.996081   16.917985    ( 0.0000,  0.0000,  0.0000)
 117 H      7.151198    8.320844   17.268001    ( 0.0000,  0.0000,  0.0000)

Unit cell:
           periodic     x           y           z      points  spacing
  1. axis:    yes   10.341746    0.000000    0.000000    54     0.1915
  2. axis:    yes   -0.000000   11.467000    0.000000    60     0.1911
  3. axis:    no     0.000000    0.000000   23.497201   125     0.1880

  Lengths:  10.341746  11.467000  23.497201
  Angles:   90.000000  90.000000  90.000000

Effective grid spacing dv^(1/3) = 0.1902

                     log10-error:    total        iterations:
           time      wfs    density  energy       fermi  poisson
iter:   1  19:08:09  -0.12   +inf  -1107.860232    0             
iter:   2  19:09:05  -1.04  -0.96  -1060.530460    2             
iter:   3  19:10:01  +0.44  -1.01  -966.238743    5             
iter:   4  19:10:57  -1.01  -1.35  -980.254203    4             
iter:   5  19:11:53  -1.08  -1.27  -998.439359    3             
iter:   6  19:12:49  -0.12  -1.24  -987.140318    5             
iter:   7  19:13:45  -0.63  -1.64  -986.020688    4             
iter:   8  19:14:41  -1.61  -1.62  -978.276320    1             
iter:   9  19:15:37  -0.91  -1.71  -971.838881    5             
iter:  10  19:16:33  -1.89  -2.06  -972.351763    2             
iter:  11  19:17:29  -2.54  -2.05  -972.002626    3             
iter:  12  19:18:24  -1.65  -2.11  -971.098642    3             
iter:  13  19:19:20  -2.24  -2.26  -971.131962    2             
iter:  14  19:20:16  -2.76  -2.30  -971.056630    2             
iter:  15  19:21:12  -2.86  -2.34  -971.085617    3             
iter:  16  19:22:08  -2.87  -2.54  -971.023437    3             
iter:  17  19:23:04  -3.33  -2.71  -971.029364    2             
iter:  18  19:24:00  -3.09  -2.77  -971.039160    3             
iter:  19  19:24:56  -3.45  -2.92  -971.016594    2             
iter:  20  19:25:52  -3.94  -3.22  -971.017714    2             
iter:  21  19:26:48  -4.54  -3.26  -971.014410    2             
iter:  22  19:27:44  -4.03  -3.35  -971.019477    1             
iter:  23  19:28:40  -4.11  -3.35  -971.013707    2             
iter:  24  19:29:36  -4.70  -3.66  -971.013778    2             
iter:  25  19:30:32  -4.96  -3.69  -971.013235    2             
iter:  26  19:31:28  -5.41  -3.87  -971.013036    1             
iter:  27  19:32:24  -6.06  -3.97  -971.013016    1             
iter:  28  19:33:20  -6.05  -3.99  -971.012990    2             
iter:  29  19:34:16  -5.57  -4.06  -971.013090    1             
iter:  30  19:35:12  -5.72  -4.06  -971.012998    1             
iter:  31  19:36:08  -6.87  -4.39  -971.012988    1             
iter:  32  19:37:04  -6.91  -4.50  -971.012986    1             
iter:  33  19:38:00  -6.43  -4.58  -971.012988    1             
iter:  34  19:38:56  -6.98  -4.62  -971.012980    1             
iter:  35  19:39:52  -8.13  -4.87  -971.012980    1             

Converged after 35 iterations.

Dipole moment: (-13.233148, -9.638369, -1.245596) |e|*Ang

Energy contributions relative to reference atoms: (reference = -1046916.965077)

Kinetic:       +684.285836
Potential:     -878.189032
External:        +0.000000
XC:            -784.884723
Entropy (-ST):   -0.000490
Local:           +7.775184
--------------------------
Free energy:   -971.013225
Extrapolated:  -971.012980

Fermi level: -0.66634

Showing only first 2 kpts
 Kpt  Band  Eigenvalues  Occupancy
  0   462     -1.74175    0.22222
  0   463     -1.73150    0.22222
  0   464      0.18817    0.00004
  0   465      0.35563    0.00001

  1   462     -1.75363    0.44444
  1   463     -1.72231    0.44443
  1   464      0.37175    0.00001
  1   465      0.49073    0.00000



Forces in eV/Ang:
  0 O    -1.85073   -0.00177    1.54306
  1 O    -1.98985   -0.00256    1.57588
  2 Ti    3.67374    0.01132    1.78286
  3 Ti    3.89412    0.02492    2.00133
  4 Ti   -1.95780   -0.01332   -1.59024
  5 Ti   -1.62818    0.01979   -1.97431
  6 O     0.93665   -0.03459   -0.21866
  7 O     0.83744   -0.02356   -0.21850
  8 O    -0.66407   -0.00667   -0.78202
  9 O    -0.76293   -0.00143   -0.63958
 10 O    -0.30881   -0.04648   -0.83579
 11 O    -0.19661    0.03064   -0.90075
 12 O    -0.06729   -0.00064    0.05957
 13 O    -0.13438    0.00603   -0.00942
 14 Ti    0.07009   -0.08643   -0.04066
 15 Ti   -0.12292   -0.00371   -0.05271
 16 Ti    0.04945    0.01253   -0.04368
 17 Ti   -0.05603    0.13446    0.14974
 18 O     0.08760    0.00545    0.03498
 19 O     0.22994   -0.12345   -0.17182
 20 O     0.00808   -0.02253    0.19310
 21 O     0.01079   -0.01591   -0.13054
 22 O     0.10645    0.01199    0.08759
 23 O    -0.05274    0.12769    0.17015
 24 O     0.14652    0.03796   -0.02634
 25 O    -0.05110   -0.07846   -0.03381
 26 Ti    0.14840   -0.14359    0.07617
 27 Ti   -0.21974    0.00580   -0.06499
 28 Ti    0.05518    0.05351   -0.18687
 29 Ti    0.04590    0.01393    0.04333
 30 O     0.05313   -0.09195   -0.02623
 31 O     0.04556   -0.02175    0.18616
 32 O    -0.06324    0.02386   -0.04826
 33 O    -0.10880   -0.03188   -0.11686
 34 O    -0.16884    0.06783    0.25504
 35 O    -0.08916    0.11708    0.07392
 36 O    -1.82969    0.00460    1.56036
 37 O    -2.07811    0.00320    1.55073
 38 Ti    3.61626   -0.00906    1.64984
 39 Ti    3.87287   -0.03183    2.00814
 40 Ti   -1.97969    0.00215   -1.59588
 41 Ti   -1.44526   -0.02456   -2.06944
 42 O     0.95445    0.02364   -0.19129
 43 O     0.83556    0.05106   -0.22348
 44 O    -0.63807    0.00983   -0.73467
 45 O    -0.76300    0.00488   -0.65416
 46 O    -0.32180    0.00738   -0.86646
 47 O    -0.19926   -0.01365   -0.87865
 48 O    -0.09424   -0.00267    0.06029
 49 O    -0.21239    0.01318   -0.03723
 50 Ti    0.09362   -0.11458   -0.03831
 51 Ti   -0.11510   -0.00354   -0.08049
 52 Ti    0.10033   -0.01422   -0.03068
 53 Ti   -0.04331    0.13203    0.18384
 54 O     0.09643    0.00699    0.01023
 55 O     0.23103   -0.10662   -0.12471
 56 O    -0.01583    0.03415    0.20132
 57 O     0.03078    0.00135   -0.09882
 58 O     0.13468   -0.01222   -0.05452
 59 O    -0.03889    0.11374    0.16922
 60 O     0.13071   -0.02048   -0.11900
 61 O    -0.16687   -0.02314    0.01124
 62 Ti    0.22088   -0.15150    0.05148
 63 Ti   -0.19778    0.02810   -0.07402
 64 Ti    0.07526   -0.06409   -0.19560
 65 Ti    0.05457    0.03128   -0.00852
 66 O    -0.19165    0.01741    0.37232
 67 O     0.24609   -0.03904    0.08082
 68 O    -0.05881   -0.01416   -0.10431
 69 O    -0.03085   -0.01579    0.03970
 70 O    -0.18232   -0.03169    0.00338
 71 O    -0.10058    0.10041    0.08593
 72 O    -1.86281   -0.00098    1.56634
 73 O    -1.98773    0.00327    1.58058
 74 Ti    3.65548    0.02283    1.74826
 75 Ti    3.81095   -0.00294    1.92147
 76 Ti   -1.83454    0.02181   -1.54557
 77 Ti   -1.53287   -0.03975   -1.80842
 78 O     0.94345    0.02284   -0.21199
 79 O     0.85992   -0.00871   -0.21504
 80 O    -0.67703   -0.01388   -0.63780
 81 O    -0.72746    0.00064   -0.65513
 82 O    -0.31519    0.04028   -0.89573
 83 O    -0.22658   -0.02536   -0.85813
 84 O    -0.02234   -0.00109    0.07891
 85 O    -0.14693   -0.00288   -0.02395
 86 Ti    0.01216   -0.12817   -0.00551
 87 Ti   -0.11126    0.00618    0.02207
 88 Ti    0.10215    0.02580   -0.11492
 89 Ti   -0.06258    0.11243    0.11622
 90 O     0.15037   -0.01746    0.02807
 91 O     0.24580   -0.09963   -0.09190
 92 O    -0.03052    0.00460    0.24464
 93 O     0.02426    0.00426   -0.10020
 94 O     0.10143    0.00840    0.02421
 95 O    -0.05007    0.09814    0.16340
 96 O    -0.01986   -0.00358   -0.06663
 97 O    -0.04985    0.01670   -0.00616
 98 Ti    0.07878   -0.08862    0.11671
 99 Ti   -0.13771   -0.10648   -0.12036
100 Ti    0.16549    0.04948   -0.06648
101 Ti    0.00563    0.16614    0.17643
102 O     0.07942    0.06567    0.04064
103 O     0.15765   -0.07661   -0.13681
104 O    -0.03656    0.00995   -0.07904
105 O    -0.11874    0.02631   -0.05379
106 O    -0.11066    0.03790   -0.09804
107 O    -0.15991    0.13342    0.13222
108 V    -0.00562    0.00283    0.18710
109 V     0.02991   -0.00125    0.21247
110 O     0.08955    0.45671    0.33921
111 O    -0.10205   -0.00009   -0.26869
112 O     0.01851    0.00960    0.02869
113 O     0.21165    0.16091    0.19096
114 O    -0.23759    0.00804   -0.03556
115 O     0.21206   -0.13568    0.18719
116 H    -0.38613   -0.16096   -0.07247
117 H     0.22709   -0.27642   -0.18538

System changes: positions 

Initializing position-dependent things.

Density initialized from wave functions
                                                
                                                
                                                
                                                
                                                
                                                
                           O                    
                     O   V O  H                 
             O                 O H              
                  TiO    O      O               
                 O V  O              Ti         
           O   Ti O          Ti   O             
               O      OiO    O                  
         O     OO   OTi    Tii   OTi            
             Tii   TiO    OOO   O               
             OO   OO    O Ti    Tii             
          O Ti     Ti   TiO  O O     O          
                OTiO   O      TiO               
           O    TiO   OTiO  O O    O Ti         
         Ti     O    O Oi    Ti     O           
              OTi          OTi    O             
             O O    O O         O Ti            
                    Ti     Oi     O             
             Oi     O    O      Ti              
           O     OTi    Ti     O                
          Ti          O      O                  
               O                                
                                                
                                                
                                                
                                                

Positions:
   0 O      8.476572    1.911173    6.000000    ( 0.0000,  0.0000,  0.0000)
   1 O      3.305699    0.000000    6.000000    ( 0.0000,  0.0000,  0.0000)
   2 Ti     1.412752    0.000000    6.752957    ( 0.0000,  0.0000,  0.0000)
   3 Ti     6.583625    1.911173    6.752957    ( 0.0000,  0.0000,  0.0000)
   4 Ti     9.522250    1.911173    7.640878    ( 0.0000,  0.0000,  0.0000)
   5 Ti     4.351376    0.000000    7.640878    ( 0.0000,  0.0000,  0.0000)
   6 O      9.861551    0.000000    7.505914    ( 0.0000,  0.0000,  0.0000)
   7 O      4.690678    1.911173    7.505914    ( 0.0000,  0.0000,  0.0000)
   8 O      7.629303    1.911173    8.393834    ( 0.0000,  0.0000,  0.0000)
   9 O      2.458430    0.000000    8.393834    ( 0.0000,  0.0000,  0.0000)
  10 O      6.244323    0.000000    6.887921    ( 0.0000,  0.0000,  0.0000)
  11 O      1.073450    1.911173    6.887921    ( 0.0000,  0.0000,  0.0000)
  12 O      9.812338    1.904246    9.611316    ( 0.0000,  0.0000,  0.0000)
  13 O      4.621344   11.470674    9.580914    ( 0.0000,  0.0000,  0.0000)
  14 Ti     2.715557   11.527373   10.339167    ( 0.0000,  0.0000,  0.0000)
  15 Ti     8.017091    1.909453   10.371210    ( 0.0000,  0.0000,  0.0000)
  16 Ti     0.504693    1.914094   11.287699    ( 0.0000,  0.0000,  0.0000)
  17 Ti     5.719795   11.396148   11.079873    ( 0.0000,  0.0000,  0.0000)
  18 O      0.902784   11.466089   11.105674    ( 0.0000,  0.0000,  0.0000)
  19 O      6.084953    1.912015   11.052401    ( 0.0000,  0.0000,  0.0000)
  20 O      9.012310    1.963606   11.977708    ( 0.0000,  0.0000,  0.0000)
  21 O      3.839810   11.455564   11.929388    ( 0.0000,  0.0000,  0.0000)
  22 O      7.579487   11.456210   10.453511    ( 0.0000,  0.0000,  0.0000)
  23 O      2.364061    1.912866   10.457600    ( 0.0000,  0.0000,  0.0000)
  24 O      0.869887    1.910458   13.186370    ( 0.0000,  0.0000,  0.0000)
  25 O      6.088249    0.117344   13.048297    ( 0.0000,  0.0000,  0.0000)
  26 Ti     4.099073    0.112241   13.799808    ( 0.0000,  0.0000,  0.0000)
  27 Ti     9.512346    1.947956   14.075294    ( 0.0000,  0.0000,  0.0000)
  28 Ti     1.961233    1.920241   14.990793    ( 0.0000,  0.0000,  0.0000)
  29 Ti     7.087812    0.021414   14.511596    ( 0.0000,  0.0000,  0.0000)
  30 O      2.383617    0.038415   14.782101    ( 0.0000,  0.0000,  0.0000)
  31 O      7.486178    1.903911   14.836425    ( 0.0000,  0.0000,  0.0000)
  32 O      0.214075    1.908675   15.583813    ( 0.0000,  0.0000,  0.0000)
  33 O      5.373452   11.206068   15.454451    ( 0.0000,  0.0000,  0.0000)
  34 O      9.027395    0.035562   13.980640    ( 0.0000,  0.0000,  0.0000)
  35 O      3.897413    1.905897   13.940938    ( 0.0000,  0.0000,  0.0000)
  36 O      8.476572    5.733518    6.000000    ( 0.0000,  0.0000,  0.0000)
  37 O      3.305699    3.822345    6.000000    ( 0.0000,  0.0000,  0.0000)
  38 Ti     1.412752    3.822345    6.752957    ( 0.0000,  0.0000,  0.0000)
  39 Ti     6.583625    5.733518    6.752957    ( 0.0000,  0.0000,  0.0000)
  40 Ti     9.522250    5.733518    7.640878    ( 0.0000,  0.0000,  0.0000)
  41 Ti     4.351376    3.822345    7.640878    ( 0.0000,  0.0000,  0.0000)
  42 O      9.861551    3.822345    7.505914    ( 0.0000,  0.0000,  0.0000)
  43 O      4.690678    5.733518    7.505914    ( 0.0000,  0.0000,  0.0000)
  44 O      7.629303    5.733518    8.393834    ( 0.0000,  0.0000,  0.0000)
  45 O      2.458430    3.822345    8.393834    ( 0.0000,  0.0000,  0.0000)
  46 O      6.244323    3.822345    6.887921    ( 0.0000,  0.0000,  0.0000)
  47 O      1.073450    5.733518    6.887921    ( 0.0000,  0.0000,  0.0000)
  48 O      9.812241    5.747002    9.616365    ( 0.0000,  0.0000,  0.0000)
  49 O      4.640846    3.830630    9.559564    ( 0.0000,  0.0000,  0.0000)
  50 Ti     2.700221    3.898584   10.316493    ( 0.0000,  0.0000,  0.0000)
  51 Ti     8.004467    5.736358   10.375406    ( 0.0000,  0.0000,  0.0000)
  52 Ti     0.491310    5.754321   11.282639    ( 0.0000,  0.0000,  0.0000)
  53 Ti     5.734300    3.751838   11.053487    ( 0.0000,  0.0000,  0.0000)
  54 O      0.909224    3.836564   11.102344    ( 0.0000,  0.0000,  0.0000)
  55 O      6.089871    5.734156   11.075061    ( 0.0000,  0.0000,  0.0000)
  56 O      9.012051    5.726317   11.986157    ( 0.0000,  0.0000,  0.0000)
  57 O      3.868820    3.832685   11.871650    ( 0.0000,  0.0000,  0.0000)
  58 O      7.578245    3.824144   10.435965    ( 0.0000,  0.0000,  0.0000)
  59 O      2.367797    5.744256   10.456003    ( 0.0000,  0.0000,  0.0000)
  60 O      0.853979    5.769376   13.209370    ( 0.0000,  0.0000,  0.0000)
  61 O      6.116495    3.807741   13.072817    ( 0.0000,  0.0000,  0.0000)
  62 Ti     4.058720    3.945669   13.718539    ( 0.0000,  0.0000,  0.0000)
  63 Ti     9.515257    5.713240   14.083285    ( 0.0000,  0.0000,  0.0000)
  64 Ti     1.955813    5.760386   15.005660    ( 0.0000,  0.0000,  0.0000)
  65 Ti     6.987944    3.780655   14.597698    ( 0.0000,  0.0000,  0.0000)
  66 O      2.318808    3.839995   14.388520    ( 0.0000,  0.0000,  0.0000)
  67 O      7.388575    5.701375   14.801844    ( 0.0000,  0.0000,  0.0000)
  68 O      0.209174    5.756102   15.605913    ( 0.0000,  0.0000,  0.0000)
  69 O      5.210708    3.828085   15.510203    ( 0.0000,  0.0000,  0.0000)
  70 O      8.960805    3.836993   14.140081    ( 0.0000,  0.0000,  0.0000)
  71 O      3.891910    5.782574   13.942949    ( 0.0000,  0.0000,  0.0000)
  72 O      8.476572    9.555862    6.000000    ( 0.0000,  0.0000,  0.0000)
  73 O      3.305699    7.644690    6.000000    ( 0.0000,  0.0000,  0.0000)
  74 Ti     1.412752    7.644690    6.752957    ( 0.0000,  0.0000,  0.0000)
  75 Ti     6.583625    9.555862    6.752957    ( 0.0000,  0.0000,  0.0000)
  76 Ti     9.522250    9.555862    7.640878    ( 0.0000,  0.0000,  0.0000)
  77 Ti     4.351376    7.644690    7.640878    ( 0.0000,  0.0000,  0.0000)
  78 O      9.861551    7.644690    7.505914    ( 0.0000,  0.0000,  0.0000)
  79 O      4.690678    9.555862    7.505914    ( 0.0000,  0.0000,  0.0000)
  80 O      7.629303    9.555862    8.393834    ( 0.0000,  0.0000,  0.0000)
  81 O      2.458430    7.644690    8.393834    ( 0.0000,  0.0000,  0.0000)
  82 O      6.244323    7.644690    6.887921    ( 0.0000,  0.0000,  0.0000)
  83 O      1.073450    9.555862    6.887921    ( 0.0000,  0.0000,  0.0000)
  84 O      9.806826    9.559815    9.621988    ( 0.0000,  0.0000,  0.0000)
  85 O      4.631900    7.652338    9.593878    ( 0.0000,  0.0000,  0.0000)
  86 Ti     2.749155    7.720980   10.324510    ( 0.0000,  0.0000,  0.0000)
  87 Ti     8.029645    9.551243   10.353239    ( 0.0000,  0.0000,  0.0000)
  88 Ti     0.512472    9.547163   11.336318    ( 0.0000,  0.0000,  0.0000)
  89 Ti     5.732632    7.584696   11.137230    ( 0.0000,  0.0000,  0.0000)
  90 O      0.906112    7.655297   11.108940    ( 0.0000,  0.0000,  0.0000)
  91 O      6.084486    9.556030   11.091050    ( 0.0000,  0.0000,  0.0000)
  92 O      9.046427    9.527046   12.007686    ( 0.0000,  0.0000,  0.0000)
  93 O      3.851063    7.662163   11.933942    ( 0.0000,  0.0000,  0.0000)
  94 O      7.572072    7.648740   10.451975    ( 0.0000,  0.0000,  0.0000)
  95 O      2.372529    9.555717   10.453877    ( 0.0000,  0.0000,  0.0000)
  96 O      0.932663    9.573499   13.235511    ( 0.0000,  0.0000,  0.0000)
  97 O      6.087680    7.609906   13.123498    ( 0.0000,  0.0000,  0.0000)
  98 Ti     4.152255    7.722143   13.793381    ( 0.0000,  0.0000,  0.0000)
  99 Ti     9.470684    9.614438   14.085148    ( 0.0000,  0.0000,  0.0000)
 100 Ti     1.947815    9.548803   14.999716    ( 0.0000,  0.0000,  0.0000)
 101 Ti     7.139751    7.551271   14.662385    ( 0.0000,  0.0000,  0.0000)
 102 O      2.378480    7.642314   14.794351    ( 0.0000,  0.0000,  0.0000)
 103 O      7.578332    9.637126   14.773026    ( 0.0000,  0.0000,  0.0000)
 104 O      0.216012    9.567073   15.614921    ( 0.0000,  0.0000,  0.0000)
 105 O      5.342591    7.992126   15.467550    ( 0.0000,  0.0000,  0.0000)
 106 O      8.986635    7.631509   14.136366    ( 0.0000,  0.0000,  0.0000)
 107 O      3.817030    9.562781   13.931728    ( 0.0000,  0.0000,  0.0000)
 108 V      4.892897    9.588788   16.265588    ( 0.0000,  0.0000,  0.0000)
 109 V      3.865217    3.825895   16.805576    ( 0.0000,  0.0000,  0.0000)
 110 O      7.745332    7.677287   16.784056    ( 0.0000,  0.0000,  0.0000)
 111 O      4.508463    3.821697   18.254072    ( 0.0000,  0.0000,  0.0000)
 112 O      3.196316    9.583149   16.564087    ( 0.0000,  0.0000,  0.0000)
 113 O      2.861457    2.373755   16.565407    ( 0.0000,  0.0000,  0.0000)
 114 O      5.763476    9.532619   17.621810    ( 0.0000,  0.0000,  0.0000)
 115 O      2.863456    5.284268   16.569388    ( 0.0000,  0.0000,  0.0000)
 116 H      8.661169    7.993781   16.916950    ( 0.0000,  0.0000,  0.0000)
 117 H      7.154442    8.316896   17.265353    ( 0.0000,  0.0000,  0.0000)

Unit cell:
           periodic     x           y           z      points  spacing
  1. axis:    yes   10.341746    0.000000    0.000000    54     0.1915
  2. axis:    yes   -0.000000   11.467000    0.000000    60     0.1911
  3. axis:    no     0.000000    0.000000   23.497201   125     0.1880

  Lengths:  10.341746  11.467000  23.497201
  Angles:   90.000000  90.000000  90.000000

Effective grid spacing dv^(1/3) = 0.1902

                     log10-error:    total        iterations:
           time      wfs    density  energy       fermi  poisson
iter:   1  19:41:08  -3.27   +inf  -971.067541    3             
iter:   2  19:42:04  -4.23  -3.31  -971.063473    2             
iter:   3  19:43:00  -3.65  -3.35  -971.053627    3             
iter:   4  19:43:56  -4.93  -3.52  -971.053819    2             
iter:   5  19:44:52  -4.75  -3.62  -971.052656    2             
iter:   6  19:45:47  -4.45  -3.72  -971.051872    2             
iter:   7  19:46:43  -5.32  -3.83  -971.051485    2             
iter:   8  19:47:39  -5.78  -3.98  -971.051307    2             
iter:   9  19:48:35  -5.89  -4.22  -971.051296    1             
iter:  10  19:49:31  -6.40  -4.31  -971.051278    2             
iter:  11  19:50:27  -6.80  -4.51  -971.051282    2             
iter:  12  19:51:23  -7.77  -4.52  -971.051278    1             

Converged after 12 iterations.

Dipole moment: (-13.289932, -9.479464, -1.237791) |e|*Ang

Energy contributions relative to reference atoms: (reference = -1046916.965077)

Kinetic:       +684.795679
Potential:     -878.547161
External:        +0.000000
XC:            -785.085337
Entropy (-ST):   -0.000491
Local:           +7.785788
--------------------------
Free energy:   -971.051523
Extrapolated:  -971.051278

Fermi level: -0.66554

Showing only first 2 kpts
 Kpt  Band  Eigenvalues  Occupancy
  0   462     -1.74056    0.22222
  0   463     -1.73052    0.22222
  0   464      0.18856    0.00004
  0   465      0.35642    0.00001

  1   462     -1.75270    0.44444
  1   463     -1.72119    0.44443
  1   464      0.37219    0.00001
  1   465      0.49231    0.00000



Forces in eV/Ang:
  0 O    -1.85205   -0.00177    1.53965
  1 O    -1.98972   -0.00238    1.57180
  2 Ti    3.67260    0.01053    1.78316
  3 Ti    3.89240    0.02439    1.99951
  4 Ti   -1.95264   -0.01302   -1.57494
  5 Ti   -1.62816    0.01929   -1.97904
  6 O     0.93663   -0.03426   -0.21829
  7 O     0.83842   -0.02419   -0.21688
  8 O    -0.66909   -0.00849   -0.78519
  9 O    -0.77009    0.00142   -0.64474
 10 O    -0.30814   -0.04500   -0.83501
 11 O    -0.19610    0.03032   -0.90086
 12 O    -0.06097   -0.00130    0.04228
 13 O    -0.09080    0.00327    0.01490
 14 Ti    0.03441   -0.07655   -0.03864
 15 Ti   -0.06317   -0.00430   -0.02107
 16 Ti    0.03143    0.01425   -0.00922
 17 Ti   -0.04484    0.11202    0.09133
 18 O     0.08185    0.01753    0.02658
 19 O     0.18125   -0.07744   -0.14613
 20 O    -0.00156   -0.02202    0.15799
 21 O     0.04148   -0.01018   -0.07245
 22 O     0.08089   -0.00068    0.09186
 23 O    -0.02796    0.10190    0.15352
 24 O     0.11824    0.03421   -0.01133
 25 O    -0.03718   -0.06953   -0.00795
 26 Ti    0.09623   -0.11157    0.05887
 27 Ti   -0.13354   -0.00164   -0.06450
 28 Ti    0.02251    0.06742   -0.10442
 29 Ti    0.04604    0.02204    0.02980
 30 O     0.06887   -0.05347   -0.02776
 31 O     0.01381   -0.01852    0.17367
 32 O    -0.03381    0.02430   -0.07927
 33 O    -0.08059   -0.03731   -0.09347
 34 O    -0.17269    0.06030    0.24588
 35 O    -0.07893    0.08326    0.05549
 36 O    -1.83161    0.00447    1.55668
 37 O    -2.07901    0.00310    1.54572
 38 Ti    3.61591   -0.00865    1.65083
 39 Ti    3.87085   -0.03066    2.00568
 40 Ti   -1.97296    0.00252   -1.57893
 41 Ti   -1.44605   -0.02351   -2.07800
 42 O     0.95425    0.02300   -0.19151
 43 O     0.83700    0.05096   -0.22254
 44 O    -0.64635    0.01047   -0.74066
 45 O    -0.77443    0.00754   -0.65966
 46 O    -0.32030    0.00704   -0.86545
 47 O    -0.19898   -0.01412   -0.87932
 48 O    -0.08421   -0.00254    0.04169
 49 O    -0.15109    0.00832    0.01770
 50 Ti    0.05167   -0.10005   -0.04507
 51 Ti   -0.05109    0.00020   -0.03930
 52 Ti    0.06815   -0.01538   -0.00433
 53 Ti   -0.02426    0.11583    0.10590
 54 O     0.08789    0.01489    0.00481
 55 O     0.18156   -0.08946   -0.10154
 56 O    -0.01996    0.03113    0.16037
 57 O     0.05315    0.00565   -0.03019
 58 O     0.08988   -0.02270   -0.03833
 59 O    -0.01541    0.08097    0.15335
 60 O     0.10626   -0.01789   -0.08487
 61 O    -0.16405   -0.02267    0.00325
 62 Ti    0.11503   -0.13956    0.09335
 63 Ti   -0.13401    0.01831   -0.09373
 64 Ti    0.05263   -0.07727   -0.11172
 65 Ti    0.03427    0.02930    0.02729
 66 O    -0.08600    0.03171    0.30633
 67 O     0.21859    0.00365    0.08648
 68 O    -0.03777   -0.00925   -0.12804
 69 O     0.02847   -0.00986   -0.01019
 70 O    -0.17924   -0.02809    0.00094
 71 O    -0.08786    0.05382    0.06715
 72 O    -1.86215   -0.00094    1.56283
 73 O    -1.98781    0.00321    1.57571
 74 Ti    3.65615    0.02231    1.75030
 75 Ti    3.81190   -0.00322    1.92329
 76 Ti   -1.83443    0.02106   -1.52923
 77 Ti   -1.53551   -0.03933   -1.81187
 78 O     0.94312    0.02314   -0.21175
 79 O     0.86007   -0.00735   -0.21337
 80 O    -0.67885   -0.01237   -0.63854
 81 O    -0.73543    0.00332   -0.66104
 82 O    -0.31378    0.03909   -0.89528
 83 O    -0.22558   -0.02393   -0.85908
 84 O    -0.02386   -0.00166    0.06480
 85 O    -0.10010   -0.00706    0.00010
 86 Ti   -0.01121   -0.11509   -0.00585
 87 Ti   -0.06311    0.00251    0.04825
 88 Ti    0.07520    0.02442   -0.07568
 89 Ti   -0.04921    0.10879    0.07370
 90 O     0.13351   -0.00289    0.02277
 91 O     0.20379   -0.07176   -0.07641
 92 O    -0.03229    0.00811    0.19061
 93 O     0.05012    0.01042   -0.04783
 94 O     0.07333   -0.00272    0.03391
 95 O    -0.03007    0.08090    0.14906
 96 O    -0.01533   -0.00385   -0.06447
 97 O    -0.02242    0.00673    0.03211
 98 Ti    0.03550   -0.07044    0.08620
 99 Ti   -0.04207   -0.08815   -0.12511
100 Ti    0.06884    0.04795   -0.06913
101 Ti   -0.00088    0.12541    0.13119
102 O     0.08605    0.04779    0.03723
103 O     0.08852   -0.07668   -0.10604
104 O    -0.01555    0.00547   -0.10287
105 O    -0.08907    0.02395   -0.03549
106 O    -0.12189    0.02401   -0.07589
107 O    -0.12485    0.10251    0.09461
108 V    -0.11207    0.02490    0.03083
109 V    -0.08021    0.00206   -0.09816
110 O    -0.10676   -0.02666    0.00703
111 O     0.04775   -0.00125    0.07166
112 O     0.02391    0.00821    0.05460
113 O     0.13726    0.08113    0.11927
114 O    -0.16005    0.01676    0.10198
115 O     0.13783   -0.05726    0.11466
116 H     0.03202    0.00389    0.01100
117 H     0.01285    0.00180    0.03935

System changes: positions 

Initializing position-dependent things.

Density initialized from wave functions
                                                
                                                
                                                
                                                
                                                
                                                
                           O                    
                     O   V O  H                 
             O                 O H              
                  TiO    O      O               
                 O V  O              Ti         
           O   Ti O          Ti   O             
               O      OiO    O                  
         O     OO   OTi    Tii   OTi            
             Tii   TiO    OOO   O               
             OO   OO    O Ti    Tii             
          O Ti     Ti   TiO  O O     O          
           O    OTiO   O      TiO               
                TiO   OTiO  O O    O Ti         
         Ti     O    O Oi    Ti     O           
              OTi          OTi    O             
             O O    O O         O Ti            
                    Ti     Oi     O             
             Oi     O    O      Ti              
           O     OTi    Ti     O                
          Ti          O      O                  
               O                                
                                                
                                                
                                                
                                                

Positions:
   0 O      8.476572    1.911173    6.000000    ( 0.0000,  0.0000,  0.0000)
   1 O      3.305699    0.000000    6.000000    ( 0.0000,  0.0000,  0.0000)
   2 Ti     1.412752    0.000000    6.752957    ( 0.0000,  0.0000,  0.0000)
   3 Ti     6.583625    1.911173    6.752957    ( 0.0000,  0.0000,  0.0000)
   4 Ti     9.522250    1.911173    7.640878    ( 0.0000,  0.0000,  0.0000)
   5 Ti     4.351376    0.000000    7.640878    ( 0.0000,  0.0000,  0.0000)
   6 O      9.861551    0.000000    7.505914    ( 0.0000,  0.0000,  0.0000)
   7 O      4.690678    1.911173    7.505914    ( 0.0000,  0.0000,  0.0000)
   8 O      7.629303    1.911173    8.393834    ( 0.0000,  0.0000,  0.0000)
   9 O      2.458430    0.000000    8.393834    ( 0.0000,  0.0000,  0.0000)
  10 O      6.244323    0.000000    6.887921    ( 0.0000,  0.0000,  0.0000)
  11 O      1.073450    1.911173    6.887921    ( 0.0000,  0.0000,  0.0000)
  12 O      9.809612    1.904198    9.613363    ( 0.0000,  0.0000,  0.0000)
  13 O      4.616868   11.470850    9.581266    ( 0.0000,  0.0000,  0.0000)
  14 Ti     2.717486   11.523926   10.337463    ( 0.0000,  0.0000,  0.0000)
  15 Ti     8.013620    1.909273   10.369910    ( 0.0000,  0.0000,  0.0000)
  16 Ti     0.506278    1.914693   11.286879    ( 0.0000,  0.0000,  0.0000)
  17 Ti     5.717710   11.401288   11.084552    ( 0.0000,  0.0000,  0.0000)
  18 O      0.906411   11.466703   11.106931    ( 0.0000,  0.0000,  0.0000)
  19 O      6.093422    1.908090   11.045738    ( 0.0000,  0.0000,  0.0000)
  20 O      9.012359    1.962643   11.985001    ( 0.0000,  0.0000,  0.0000)
  21 O      3.841240   11.455052   11.925533    ( 0.0000,  0.0000,  0.0000)
  22 O      7.583313   11.456334   10.457451    ( 0.0000,  0.0000,  0.0000)
  23 O      2.362545    1.917608   10.464474    ( 0.0000,  0.0000,  0.0000)
  24 O      0.875370    1.911990   13.185695    ( 0.0000,  0.0000,  0.0000)
  25 O      6.086464    0.114214   13.047638    ( 0.0000,  0.0000,  0.0000)
  26 Ti     4.103889    0.107003   13.802577    ( 0.0000,  0.0000,  0.0000)
  27 Ti     9.505495    1.947975   14.072485    ( 0.0000,  0.0000,  0.0000)
  28 Ti     1.962609    1.923001   14.985253    ( 0.0000,  0.0000,  0.0000)
  29 Ti     7.089811    0.022273   14.513055    ( 0.0000,  0.0000,  0.0000)
  30 O      2.386419    0.035624   14.780913    ( 0.0000,  0.0000,  0.0000)
  31 O      7.487164    1.903067   14.844124    ( 0.0000,  0.0000,  0.0000)
  32 O      0.212248    1.909726   15.580745    ( 0.0000,  0.0000,  0.0000)
  33 O      5.369607   11.204513   15.450105    ( 0.0000,  0.0000,  0.0000)
  34 O      9.019938    0.038274   13.991436    ( 0.0000,  0.0000,  0.0000)
  35 O      3.893859    1.909926   13.943574    ( 0.0000,  0.0000,  0.0000)
  36 O      8.476572    5.733518    6.000000    ( 0.0000,  0.0000,  0.0000)
  37 O      3.305699    3.822345    6.000000    ( 0.0000,  0.0000,  0.0000)
  38 Ti     1.412752    3.822345    6.752957    ( 0.0000,  0.0000,  0.0000)
  39 Ti     6.583625    5.733518    6.752957    ( 0.0000,  0.0000,  0.0000)
  40 Ti     9.522250    5.733518    7.640878    ( 0.0000,  0.0000,  0.0000)
  41 Ti     4.351376    3.822345    7.640878    ( 0.0000,  0.0000,  0.0000)
  42 O      9.861551    3.822345    7.505914    ( 0.0000,  0.0000,  0.0000)
  43 O      4.690678    5.733518    7.505914    ( 0.0000,  0.0000,  0.0000)
  44 O      7.629303    5.733518    8.393834    ( 0.0000,  0.0000,  0.0000)
  45 O      2.458430    3.822345    8.393834    ( 0.0000,  0.0000,  0.0000)
  46 O      6.244323    3.822345    6.887921    ( 0.0000,  0.0000,  0.0000)
  47 O      1.073450    5.733518    6.887921    ( 0.0000,  0.0000,  0.0000)
  48 O      9.808459    5.746890    9.618403    ( 0.0000,  0.0000,  0.0000)
  49 O      4.633535    3.831050    9.559666    ( 0.0000,  0.0000,  0.0000)
  50 Ti     2.702977    3.894059   10.314616    ( 0.0000,  0.0000,  0.0000)
  51 Ti     8.001469    5.736321   10.373198    ( 0.0000,  0.0000,  0.0000)
  52 Ti     0.494663    5.753667   11.282130    ( 0.0000,  0.0000,  0.0000)
  53 Ti     5.733014    3.757068   11.059036    ( 0.0000,  0.0000,  0.0000)
  54 O      0.913148    3.837116   11.102619    ( 0.0000,  0.0000,  0.0000)
  55 O      6.098362    5.730060   11.070366    ( 0.0000,  0.0000,  0.0000)
  56 O      9.011234    5.727707   11.993624    ( 0.0000,  0.0000,  0.0000)
  57 O      3.870858    3.832879   11.869504    ( 0.0000,  0.0000,  0.0000)
  58 O      7.582696    3.823285   10.434103    ( 0.0000,  0.0000,  0.0000)
  59 O      2.366842    5.748173   10.462860    ( 0.0000,  0.0000,  0.0000)
  60 O      0.858894    5.768567   13.205267    ( 0.0000,  0.0000,  0.0000)
  61 O      6.109332    3.806750   13.073056    ( 0.0000,  0.0000,  0.0000)
  62 Ti     4.065006    3.939459   13.722087    ( 0.0000,  0.0000,  0.0000)
  63 Ti     9.508658    5.714155   14.079451    ( 0.0000,  0.0000,  0.0000)
  64 Ti     1.958375    5.757188   14.999785    ( 0.0000,  0.0000,  0.0000)
  65 Ti     6.989680    3.781953   14.598449    ( 0.0000,  0.0000,  0.0000)
  66 O      2.313786    3.841200   14.402635    ( 0.0000,  0.0000,  0.0000)
  67 O      7.398408    5.701015   14.805533    ( 0.0000,  0.0000,  0.0000)
  68 O      0.207276    5.755640   15.600637    ( 0.0000,  0.0000,  0.0000)
  69 O      5.211225    3.827584   15.510367    ( 0.0000,  0.0000,  0.0000)
  70 O      8.952978    3.835729   14.140151    ( 0.0000,  0.0000,  0.0000)
  71 O      3.887938    5.785479   13.946096    ( 0.0000,  0.0000,  0.0000)
  72 O      8.476572    9.555862    6.000000    ( 0.0000,  0.0000,  0.0000)
  73 O      3.305699    7.644690    6.000000    ( 0.0000,  0.0000,  0.0000)
  74 Ti     1.412752    7.644690    6.752957    ( 0.0000,  0.0000,  0.0000)
  75 Ti     6.583625    9.555862    6.752957    ( 0.0000,  0.0000,  0.0000)
  76 Ti     9.522250    9.555862    7.640878    ( 0.0000,  0.0000,  0.0000)
  77 Ti     4.351376    7.644690    7.640878    ( 0.0000,  0.0000,  0.0000)
  78 O      9.861551    7.644690    7.505914    ( 0.0000,  0.0000,  0.0000)
  79 O      4.690678    9.555862    7.505914    ( 0.0000,  0.0000,  0.0000)
  80 O      7.629303    9.555862    8.393834    ( 0.0000,  0.0000,  0.0000)
  81 O      2.458430    7.644690    8.393834    ( 0.0000,  0.0000,  0.0000)
  82 O      6.244323    7.644690    6.887921    ( 0.0000,  0.0000,  0.0000)
  83 O      1.073450    9.555862    6.887921    ( 0.0000,  0.0000,  0.0000)
  84 O      9.805808    9.559750    9.624975    ( 0.0000,  0.0000,  0.0000)
  85 O      4.626981    7.652082    9.593590    ( 0.0000,  0.0000,  0.0000)
  86 Ti     2.748952    7.715819   10.324259    ( 0.0000,  0.0000,  0.0000)
  87 Ti     8.026318    9.551397   10.355017    ( 0.0000,  0.0000,  0.0000)
  88 Ti     0.516068    9.548241   11.332552    ( 0.0000,  0.0000,  0.0000)
  89 Ti     5.730331    7.589468   11.140950    ( 0.0000,  0.0000,  0.0000)
  90 O      0.912118    7.654995   11.109994    ( 0.0000,  0.0000,  0.0000)
  91 O      6.093853    9.552573   11.087541    ( 0.0000,  0.0000,  0.0000)
  92 O      9.045046    9.527356   12.016626    ( 0.0000,  0.0000,  0.0000)
  93 O      3.852926    7.662542   11.931227    ( 0.0000,  0.0000,  0.0000)
  94 O      7.575600    7.648756   10.453330    ( 0.0000,  0.0000,  0.0000)
  95 O      2.370979    9.559442   10.460529    ( 0.0000,  0.0000,  0.0000)
  96 O      0.931942    9.573335   13.232683    ( 0.0000,  0.0000,  0.0000)
  97 O      6.086372    7.610319   13.124428    ( 0.0000,  0.0000,  0.0000)
  98 Ti     4.154324    7.718861   13.797498    ( 0.0000,  0.0000,  0.0000)
  99 Ti     9.467694    9.610384   14.079769    ( 0.0000,  0.0000,  0.0000)
 100 Ti     1.951982    9.550906   14.996745    ( 0.0000,  0.0000,  0.0000)
 101 Ti     7.139792    7.557216   14.668636    ( 0.0000,  0.0000,  0.0000)
 102 O      2.382139    7.644608   14.796010    ( 0.0000,  0.0000,  0.0000)
 103 O      7.583020    9.633795   14.768043    ( 0.0000,  0.0000,  0.0000)
 104 O      0.215081    9.567365   15.610740    ( 0.0000,  0.0000,  0.0000)
 105 O      5.338360    7.993196   15.465785    ( 0.0000,  0.0000,  0.0000)
 106 O      8.981474    7.632721   14.132799    ( 0.0000,  0.0000,  0.0000)
 107 O      3.811178    9.567612   13.936297    ( 0.0000,  0.0000,  0.0000)
 108 V      4.889321    9.589602   16.268827    ( 0.0000,  0.0000,  0.0000)
 109 V      3.863070    3.825945   16.805086    ( 0.0000,  0.0000,  0.0000)
 110 O      7.743079    7.682004   16.788400    ( 0.0000,  0.0000,  0.0000)
 111 O      4.508717    3.821657   18.253049    ( 0.0000,  0.0000,  0.0000)
 112 O      3.197290    9.583522   16.566144    ( 0.0000,  0.0000,  0.0000)
 113 O      2.868326    2.378251   16.571462    ( 0.0000,  0.0000,  0.0000)
 114 O      5.755578    9.533242   17.624570    ( 0.0000,  0.0000,  0.0000)
 115 O      2.870348    5.280826   16.575252    ( 0.0000,  0.0000,  0.0000)
 116 H      8.657478    7.991946   16.916413    ( 0.0000,  0.0000,  0.0000)
 117 H      7.157605    8.313592   17.264331    ( 0.0000,  0.0000,  0.0000)

Unit cell:
           periodic     x           y           z      points  spacing
  1. axis:    yes   10.341746    0.000000    0.000000    54     0.1915
  2. axis:    yes   -0.000000   11.467000    0.000000    60     0.1911
  3. axis:    no     0.000000    0.000000   23.497201   125     0.1880

  Lengths:  10.341746  11.467000  23.497201
  Angles:   90.000000  90.000000  90.000000

Effective grid spacing dv^(1/3) = 0.1902

                     log10-error:    total        iterations:
           time      wfs    density  energy       fermi  poisson
iter:   1  19:52:39  -2.72   +inf  -971.119383    3             
iter:   2  19:53:35  -3.64  -3.11  -971.117637    2             
iter:   3  19:54:31  -3.60  -3.13  -971.104676    2             
iter:   4  19:55:27  -4.58  -3.35  -971.104448    2             
iter:   5  19:56:23  -4.32  -3.39  -971.104386    2             
iter:   6  19:57:19  -4.18  -3.48  -971.103054    2             
iter:   7  19:58:14  -5.12  -3.68  -971.102152    2             
iter:   8  19:59:10  -5.62  -3.88  -971.102041    1             
iter:   9  20:00:06  -5.65  -4.07  -971.102087    2             
iter:  10  20:01:02  -5.86  -4.09  -971.102015    2             
iter:  11  20:01:58  -6.56  -4.37  -971.102017    2             
iter:  12  20:02:54  -7.40  -4.37  -971.102011    1             

Converged after 12 iterations.

Dipole moment: (-13.424168, -9.171126, -1.274947) |e|*Ang

Energy contributions relative to reference atoms: (reference = -1046916.965077)

Kinetic:       +683.647284
Potential:     -877.564813
External:        +0.000000
XC:            -784.978328
Entropy (-ST):   -0.000496
Local:           +7.794095
--------------------------
Free energy:   -971.102259
Extrapolated:  -971.102011

Fermi level: -0.67580

Showing only first 2 kpts
 Kpt  Band  Eigenvalues  Occupancy
  0   462     -1.74943    0.22222
  0   463     -1.73969    0.22222
  0   464      0.17631    0.00004
  0   465      0.34805    0.00001

  1   462     -1.76339    0.44444
  1   463     -1.72994    0.44443
  1   464      0.36001    0.00001
  1   465      0.48581    0.00000



Forces in eV/Ang:
  0 O    -1.85302   -0.00169    1.54253
  1 O    -1.98880   -0.00197    1.57481
  2 Ti    3.66472    0.00812    1.77707
  3 Ti    3.89247    0.02274    1.99536
  4 Ti   -1.94871   -0.01204   -1.54400
  5 Ti   -1.62267    0.01732   -1.99185
  6 O     0.93946   -0.03374   -0.21890
  7 O     0.83803   -0.02469   -0.21274
  8 O    -0.67757   -0.01416   -0.79801
  9 O    -0.78340    0.00828   -0.65433
 10 O    -0.31098   -0.04097   -0.83250
 11 O    -0.19428    0.02978   -0.90044
 12 O    -0.02969   -0.00213    0.00940
 13 O    -0.00149   -0.00257    0.04650
 14 Ti   -0.03057   -0.05519   -0.02059
 15 Ti    0.04845   -0.00629    0.03881
 16 Ti   -0.00420    0.02168    0.05916
 17 Ti   -0.00355    0.07399   -0.02116
 18 O     0.05675    0.04183    0.00856
 19 O     0.06010    0.01131   -0.08677
 20 O    -0.00664   -0.02148    0.07462
 21 O     0.09410    0.00063    0.03680
 22 O     0.02949   -0.02669    0.09589
 23 O     0.02611    0.03293    0.10812
 24 O     0.05546    0.02851    0.00610
 25 O    -0.00528   -0.04727    0.03492
 26 Ti   -0.00794   -0.04765    0.02335
 27 Ti    0.01699   -0.01032   -0.05994
 28 Ti   -0.05156    0.05784    0.04313
 29 Ti    0.04129    0.02260    0.02262
 30 O     0.08010    0.03512   -0.02145
 31 O    -0.04691    0.00123    0.12722
 32 O     0.02892    0.02701   -0.12088
 33 O    -0.02769   -0.03016   -0.05313
 34 O    -0.14279    0.03346    0.20543
 35 O    -0.05932    0.00951    0.01605
 36 O    -1.83389    0.00409    1.55876
 37 O    -2.07882    0.00267    1.54783
 38 Ti    3.60925   -0.00743    1.64637
 39 Ti    3.87002   -0.02705    2.00049
 40 Ti   -1.96602    0.00345   -1.54499
 41 Ti   -1.44229   -0.02015   -2.09248
 42 O     0.95661    0.02133   -0.19350
 43 O     0.83777    0.04873   -0.22034
 44 O    -0.66274    0.01190   -0.76051
 45 O    -0.79755    0.01355   -0.67472
 46 O    -0.32147    0.00583   -0.86177
 47 O    -0.19766   -0.01589   -0.88103
 48 O    -0.04305   -0.00176    0.00479
 49 O    -0.02734   -0.00140    0.09534
 50 Ti   -0.01576   -0.07265   -0.03114
 51 Ti    0.06515    0.00424    0.04303
 52 Ti    0.00591   -0.01416    0.05622
 53 Ti    0.02085    0.08809   -0.03144
 54 O     0.05137    0.02832   -0.00604
 55 O     0.05950   -0.03117   -0.04812
 56 O    -0.01392    0.02178    0.06015
 57 O     0.07764    0.01467    0.10297
 58 O     0.00662   -0.03770   -0.01374
 59 O     0.03480    0.00744    0.10879
 60 O     0.05711   -0.01459   -0.03124
 61 O    -0.12131   -0.02045    0.01905
 62 Ti   -0.03970   -0.11008    0.11021
 63 Ti   -0.03167    0.00481   -0.11616
 64 Ti   -0.01425   -0.05169    0.04187
 65 Ti   -0.00736    0.03618    0.06928
 66 O     0.09772    0.04344    0.17307
 67 O     0.15245    0.05324    0.07737
 68 O     0.00997   -0.00094   -0.15967
 69 O     0.12105    0.00356   -0.12180
 70 O    -0.14476   -0.02659   -0.01141
 71 O    -0.05916   -0.04333    0.02427
 72 O    -1.85751   -0.00073    1.56613
 73 O    -1.98789    0.00295    1.57651
 74 Ti    3.65365    0.02109    1.74924
 75 Ti    3.81800   -0.00438    1.92913
 76 Ti   -1.84381    0.01896   -1.49605
 77 Ti   -1.53650   -0.03801   -1.82026
 78 O     0.94478    0.02413   -0.21243
 79 O     0.85805   -0.00341   -0.20967
 80 O    -0.67814   -0.00906   -0.64385
 81 O    -0.75129    0.00993   -0.67117
 82 O    -0.31456    0.03610   -0.89406
 83 O    -0.22271   -0.02006   -0.86137
 84 O    -0.01536   -0.00257    0.03358
 85 O    -0.00163   -0.01478    0.03978
 86 Ti   -0.04780   -0.08977    0.00271
 87 Ti    0.02838   -0.00824    0.09524
 88 Ti    0.01675    0.02143   -0.00763
 89 Ti   -0.00314    0.09071   -0.00064
 90 O     0.07990    0.02873    0.01083
 91 O     0.09209   -0.00841   -0.03880
 92 O    -0.02122    0.01736    0.05777
 93 O     0.09017    0.02603    0.04778
 94 O     0.01730   -0.02438    0.04887
 95 O     0.01562    0.03543    0.10921
 96 O     0.00657   -0.00147   -0.06296
 97 O     0.00602   -0.01222    0.06868
 98 Ti   -0.04535   -0.05036    0.03337
 99 Ti    0.08637   -0.05889   -0.11888
100 Ti   -0.10147    0.03468   -0.07418
101 Ti   -0.00163    0.05317    0.04398
102 O     0.08410    0.01053    0.03050
103 O    -0.04252   -0.06158   -0.04414
104 O     0.02433   -0.00672   -0.12608
105 O    -0.04656    0.02503   -0.00352
106 O    -0.09997    0.00167   -0.03737
107 O    -0.04526    0.03463    0.01214
108 V    -0.11463    0.03315   -0.05564
109 V     0.05160    0.01170    0.03434
110 O    -0.02596   -0.38866   -0.26389
111 O     0.06231   -0.00073    0.09297
112 O    -0.03468    0.01000    0.08924
113 O    -0.04497   -0.10599   -0.04173
114 O    -0.09218    0.02046    0.16816
115 O    -0.04009    0.12192   -0.04020
116 H     0.21084    0.07675    0.05537
117 H    -0.22902    0.29139    0.27537

System changes: positions 

Initializing position-dependent things.

Density initialized from wave functions
                                                
                                                
                                                
                                                
                                                
                                                
                           O                    
                     O   V O  H                 
             O                 O H              
                  TiO    O      O               
                 OOV  O              Ti         
           O   Ti            Ti   O             
               O      OiO    O                  
         O     OO   OTi    Tii   OTi            
             Tii   TiO    OOO  O                
             OO   OO    O Ti    Tii             
          O Ti     Ti   TiO  O O     O          
            O   OTiO   O      TiO               
                TiO   OTiO  O O    O Ti         
         Ti     O    O Oi    Ti     O           
              OTi          OTi    O             
             O O    O O         O Ti            
                    Ti     Oi     O             
             Oi     O    O      Ti              
           O     OTi    Ti     O                
          Ti          O      O                  
               O                                
                                                
                                                
                                                
                                                

Positions:
   0 O      8.476572    1.911173    6.000000    ( 0.0000,  0.0000,  0.0000)
   1 O      3.305699    0.000000    6.000000    ( 0.0000,  0.0000,  0.0000)
   2 Ti     1.412752    0.000000    6.752957    ( 0.0000,  0.0000,  0.0000)
   3 Ti     6.583625    1.911173    6.752957    ( 0.0000,  0.0000,  0.0000)
   4 Ti     9.522250    1.911173    7.640878    ( 0.0000,  0.0000,  0.0000)
   5 Ti     4.351376    0.000000    7.640878    ( 0.0000,  0.0000,  0.0000)
   6 O      9.861551    0.000000    7.505914    ( 0.0000,  0.0000,  0.0000)
   7 O      4.690678    1.911173    7.505914    ( 0.0000,  0.0000,  0.0000)
   8 O      7.629303    1.911173    8.393834    ( 0.0000,  0.0000,  0.0000)
   9 O      2.458430    0.000000    8.393834    ( 0.0000,  0.0000,  0.0000)
  10 O      6.244323    0.000000    6.887921    ( 0.0000,  0.0000,  0.0000)
  11 O      1.073450    1.911173    6.887921    ( 0.0000,  0.0000,  0.0000)
  12 O      9.807391    1.904130    9.614850    ( 0.0000,  0.0000,  0.0000)
  13 O      4.613977   11.470916    9.582268    ( 0.0000,  0.0000,  0.0000)
  14 Ti     2.718198   11.520735   10.336047    ( 0.0000,  0.0000,  0.0000)
  15 Ti     8.012232    1.909043   10.369757    ( 0.0000,  0.0000,  0.0000)
  16 Ti     0.507221    1.915476   11.287407    ( 0.0000,  0.0000,  0.0000)
  17 Ti     5.716368   11.405928   11.087191    ( 0.0000,  0.0000,  0.0000)
  18 O      0.909708   11.467845   11.107887    ( 0.0000,  0.0000,  0.0000)
  19 O      6.099854    1.905764   11.039940    ( 0.0000,  0.0000,  0.0000)
  20 O      9.012317    1.961640   11.990970    ( 0.0000,  0.0000,  0.0000)
  21 O      3.843808   11.454732   11.923695    ( 0.0000,  0.0000,  0.0000)
  22 O      7.586293   11.455936   10.461675    ( 0.0000,  0.0000,  0.0000)
  23 O      2.362052    1.921183   10.470775    ( 0.0000,  0.0000,  0.0000)
  24 O      0.879857    1.913488   13.185331    ( 0.0000,  0.0000,  0.0000)
  25 O      6.085238    0.111376   13.047809    ( 0.0000,  0.0000,  0.0000)
  26 Ti     4.106838    0.102792   13.804767    ( 0.0000,  0.0000,  0.0000)
  27 Ti     9.501333    1.947822   14.069624    ( 0.0000,  0.0000,  0.0000)
  28 Ti     1.962544    1.925688   14.982413    ( 0.0000,  0.0000,  0.0000)
  29 Ti     7.091814    0.023178   14.514458    ( 0.0000,  0.0000,  0.0000)
  30 O      2.389582    0.034496   14.779797    ( 0.0000,  0.0000,  0.0000)
  31 O      7.486969    1.902589   14.851266    ( 0.0000,  0.0000,  0.0000)
  32 O      0.211604    1.910888   15.576684    ( 0.0000,  0.0000,  0.0000)
  33 O      5.366635   11.203033   15.446348    ( 0.0000,  0.0000,  0.0000)
  34 O      9.012723    0.040574   14.001959    ( 0.0000,  0.0000,  0.0000)
  35 O      3.890517    1.912662   13.945543    ( 0.0000,  0.0000,  0.0000)
  36 O      8.476572    5.733518    6.000000    ( 0.0000,  0.0000,  0.0000)
  37 O      3.305699    3.822345    6.000000    ( 0.0000,  0.0000,  0.0000)
  38 Ti     1.412752    3.822345    6.752957    ( 0.0000,  0.0000,  0.0000)
  39 Ti     6.583625    5.733518    6.752957    ( 0.0000,  0.0000,  0.0000)
  40 Ti     9.522250    5.733518    7.640878    ( 0.0000,  0.0000,  0.0000)
  41 Ti     4.351376    3.822345    7.640878    ( 0.0000,  0.0000,  0.0000)
  42 O      9.861551    3.822345    7.505914    ( 0.0000,  0.0000,  0.0000)
  43 O      4.690678    5.733518    7.505914    ( 0.0000,  0.0000,  0.0000)
  44 O      7.629303    5.733518    8.393834    ( 0.0000,  0.0000,  0.0000)
  45 O      2.458430    3.822345    8.393834    ( 0.0000,  0.0000,  0.0000)
  46 O      6.244323    3.822345    6.887921    ( 0.0000,  0.0000,  0.0000)
  47 O      1.073450    5.733518    6.887921    ( 0.0000,  0.0000,  0.0000)
  48 O      9.805331    5.746789    9.619797    ( 0.0000,  0.0000,  0.0000)
  49 O      4.628359    3.831295    9.561330    ( 0.0000,  0.0000,  0.0000)
  50 Ti     2.704515    3.889855   10.312943    ( 0.0000,  0.0000,  0.0000)
  51 Ti     8.000670    5.736362   10.372548    ( 0.0000,  0.0000,  0.0000)
  52 Ti     0.496926    5.753006   11.282831    ( 0.0000,  0.0000,  0.0000)
  53 Ti     5.732583    3.762011   11.062095    ( 0.0000,  0.0000,  0.0000)
  54 O      0.916520    3.837967   11.102687    ( 0.0000,  0.0000,  0.0000)
  55 O      6.104800    5.726950   11.066518    ( 0.0000,  0.0000,  0.0000)
  56 O      9.010506    5.728977   11.999431    ( 0.0000,  0.0000,  0.0000)
  57 O      3.873487    3.833266   11.869951    ( 0.0000,  0.0000,  0.0000)
  58 O      7.585690    3.822080   10.432638    ( 0.0000,  0.0000,  0.0000)
  59 O      2.366860    5.750795   10.469160    ( 0.0000,  0.0000,  0.0000)
  60 O      0.863066    5.767782   13.202031    ( 0.0000,  0.0000,  0.0000)
  61 O      6.102688    3.805753   13.073648    ( 0.0000,  0.0000,  0.0000)
  62 Ti     4.068510    3.933528   13.726120    ( 0.0000,  0.0000,  0.0000)
  63 Ti     9.503780    5.714846   14.074972    ( 0.0000,  0.0000,  0.0000)
  64 Ti     1.959697    5.754377   14.996718    ( 0.0000,  0.0000,  0.0000)
  65 Ti     6.990660    3.783464   14.600073    ( 0.0000,  0.0000,  0.0000)
  66 O      2.312221    3.842694   14.414774    ( 0.0000,  0.0000,  0.0000)
  67 O      7.407403    5.701621   14.809216    ( 0.0000,  0.0000,  0.0000)
  68 O      0.206254    5.755323   15.594453    ( 0.0000,  0.0000,  0.0000)
  69 O      5.213633    3.827331   15.508263    ( 0.0000,  0.0000,  0.0000)
  70 O      8.945463    3.834426   14.139970    ( 0.0000,  0.0000,  0.0000)
  71 O      3.884344    5.786558   13.948531    ( 0.0000,  0.0000,  0.0000)
  72 O      8.476572    9.555862    6.000000    ( 0.0000,  0.0000,  0.0000)
  73 O      3.305699    7.644690    6.000000    ( 0.0000,  0.0000,  0.0000)
  74 Ti     1.412752    7.644690    6.752957    ( 0.0000,  0.0000,  0.0000)
  75 Ti     6.583625    9.555862    6.752957    ( 0.0000,  0.0000,  0.0000)
  76 Ti     9.522250    9.555862    7.640878    ( 0.0000,  0.0000,  0.0000)
  77 Ti     4.351376    7.644690    7.640878    ( 0.0000,  0.0000,  0.0000)
  78 O      9.861551    7.644690    7.505914    ( 0.0000,  0.0000,  0.0000)
  79 O      4.690678    9.555862    7.505914    ( 0.0000,  0.0000,  0.0000)
  80 O      7.629303    9.555862    8.393834    ( 0.0000,  0.0000,  0.0000)
  81 O      2.458430    7.644690    8.393834    ( 0.0000,  0.0000,  0.0000)
  82 O      6.244323    7.644690    6.887921    ( 0.0000,  0.0000,  0.0000)
  83 O      1.073450    9.555862    6.887921    ( 0.0000,  0.0000,  0.0000)
  84 O      9.804916    9.559663    9.627482    ( 0.0000,  0.0000,  0.0000)
  85 O      4.623810    7.651656    9.594088    ( 0.0000,  0.0000,  0.0000)
  86 Ti     2.748001    7.710904   10.324176    ( 0.0000,  0.0000,  0.0000)
  87 Ti     8.024673    9.551338   10.357841    ( 0.0000,  0.0000,  0.0000)
  88 Ti     0.518660    9.549314   11.329967    ( 0.0000,  0.0000,  0.0000)
  89 Ti     5.728859    7.594114   11.143359    ( 0.0000,  0.0000,  0.0000)
  90 O      0.917336    7.655321   11.110860    ( 0.0000,  0.0000,  0.0000)
  91 O      6.101420    9.550228   11.084618    ( 0.0000,  0.0000,  0.0000)
  92 O      9.043826    9.527871   12.023316    ( 0.0000,  0.0000,  0.0000)
  93 O      3.855694    7.663259   11.930308    ( 0.0000,  0.0000,  0.0000)
  94 O      7.578173    7.648334   10.455058    ( 0.0000,  0.0000,  0.0000)
  95 O      2.370280    9.562430   10.466710    ( 0.0000,  0.0000,  0.0000)
  96 O      0.931636    9.573213   13.229737    ( 0.0000,  0.0000,  0.0000)
  97 O      6.085557    7.610370   13.126125    ( 0.0000,  0.0000,  0.0000)
  98 Ti     4.154861    7.715806   13.800760    ( 0.0000,  0.0000,  0.0000)
  99 Ti     9.467118    9.606709   14.074246    ( 0.0000,  0.0000,  0.0000)
 100 Ti     1.952917    9.552841   14.993515    ( 0.0000,  0.0000,  0.0000)
 101 Ti     7.139828    7.562008   14.673442    ( 0.0000,  0.0000,  0.0000)
 102 O      2.385940    7.646264   14.797619    ( 0.0000,  0.0000,  0.0000)
 103 O      7.585291    9.630606   14.764060    ( 0.0000,  0.0000,  0.0000)
 104 O      0.214911    9.567422   15.605885    ( 0.0000,  0.0000,  0.0000)
 105 O      5.334761    7.994347   15.464575    ( 0.0000,  0.0000,  0.0000)
 106 O      8.976519    7.633546   14.129825    ( 0.0000,  0.0000,  0.0000)
 107 O      3.806646    9.571310   13.939422    ( 0.0000,  0.0000,  0.0000)
 108 V      4.885641    9.590603   16.270622    ( 0.0000,  0.0000,  0.0000)
 109 V      3.863716    3.826194   16.807746    ( 0.0000,  0.0000,  0.0000)
 110 O      7.742653    7.679993   16.787712    ( 0.0000,  0.0000,  0.0000)
 111 O      4.509098    3.821627   18.251985    ( 0.0000,  0.0000,  0.0000)
 112 O      3.197078    9.583955   16.569003    ( 0.0000,  0.0000,  0.0000)
 113 O      2.871828    2.379158   16.574547    ( 0.0000,  0.0000,  0.0000)
 114 O      5.748592    9.533963   17.628686    ( 0.0000,  0.0000,  0.0000)
 115 O      2.873963    5.280863   16.578267    ( 0.0000,  0.0000,  0.0000)
 116 H      8.656809    7.991333   16.916673    ( 0.0000,  0.0000,  0.0000)
 117 H      7.156134    8.315833   17.267918    ( 0.0000,  0.0000,  0.0000)

Unit cell:
           periodic     x           y           z      points  spacing
  1. axis:    yes   10.341746    0.000000    0.000000    54     0.1915
  2. axis:    yes   -0.000000   11.467000    0.000000    60     0.1911
  3. axis:    no     0.000000    0.000000   23.497201   125     0.1880

  Lengths:  10.341746  11.467000  23.497201
  Angles:   90.000000  90.000000  90.000000

Effective grid spacing dv^(1/3) = 0.1902

                     log10-error:    total        iterations:
           time      wfs    density  energy       fermi  poisson
iter:   1  20:04:10  -2.98   +inf  -971.135906    2             
iter:   2  20:05:06  -3.89  -3.26  -971.136273    2             
iter:   3  20:06:02  -3.99  -3.28  -971.131376    2             
iter:   4  20:06:57  -4.67  -3.52  -971.131377    1             
iter:   5  20:07:53  -4.47  -3.56  -971.131613    2             
iter:   6  20:08:49  -4.66  -3.65  -971.130653    2             
iter:   7  20:09:45  -5.35  -3.96  -971.130534    2             
iter:   8  20:10:40  -6.00  -4.06  -971.130471    1             
iter:   9  20:11:36  -6.01  -4.25  -971.130480    1             
iter:  10  20:12:32  -6.09  -4.28  -971.130457    2             
iter:  11  20:13:28  -6.97  -4.53  -971.130454    1             
iter:  12  20:14:24  -6.69  -4.51  -971.130470    1             
iter:  13  20:15:19  -7.04  -4.43  -971.130455    1             
iter:  14  20:16:15  -6.51  -4.68  -971.130448    1             
iter:  15  20:17:11  -6.92  -5.06  -971.130450    1             
iter:  16  20:18:07  -8.02  -5.04  -971.130449    1             

Converged after 16 iterations.

Dipole moment: (-13.510805, -9.071872, -1.292272) |e|*Ang

Energy contributions relative to reference atoms: (reference = -1046916.965077)

Kinetic:       +683.304365
Potential:     -877.320512
External:        +0.000000
XC:            -784.908656
Entropy (-ST):   -0.000499
Local:           +7.794603
--------------------------
Free energy:   -971.130699
Extrapolated:  -971.130449

Fermi level: -0.68261

Showing only first 2 kpts
 Kpt  Band  Eigenvalues  Occupancy
  0   462     -1.75506    0.22222
  0   463     -1.74541    0.22222
  0   464      0.16756    0.00005
  0   465      0.34430    0.00001

  1   462     -1.77161    0.44444
  1   463     -1.73528    0.44443
  1   464      0.35115    0.00001
  1   465      0.48351    0.00000



Forces in eV/Ang:
  0 O    -1.85146   -0.00165    1.54348
  1 O    -1.98815   -0.00156    1.57711
  2 Ti    3.65568    0.00591    1.77005
  3 Ti    3.89784    0.02099    1.99675
  4 Ti   -1.95677   -0.01094   -1.52263
  5 Ti   -1.61423    0.01455   -1.99444
  6 O     0.94352   -0.03378   -0.21894
  7 O     0.83476   -0.02333   -0.20832
  8 O    -0.68084   -0.01954   -0.80688
  9 O    -0.79097    0.01226   -0.65661
 10 O    -0.31543   -0.03740   -0.83142
 11 O    -0.19114    0.02956   -0.90064
 12 O     0.00523   -0.00162   -0.00532
 13 O     0.04053   -0.00558    0.03626
 14 Ti   -0.04393   -0.05229    0.01529
 15 Ti    0.08502   -0.01050    0.05774
 16 Ti   -0.00629    0.02946    0.09378
 17 Ti    0.02880    0.07006   -0.05992
 18 O     0.02511    0.04836    0.00385
 19 O    -0.01756    0.04599   -0.05277
 20 O     0.00191   -0.02209    0.02443
 21 O     0.10386    0.00617    0.06823
 22 O     0.01650   -0.03430    0.09376
 23 O     0.05648   -0.00829    0.07927
 24 O     0.01523    0.02704   -0.00339
 25 O     0.02201   -0.03148    0.04864
 26 Ti   -0.06421   -0.02923    0.01262
 27 Ti    0.06499   -0.00778   -0.04630
 28 Ti   -0.05551    0.04648    0.10317
 29 Ti    0.02453    0.02206    0.01789
 30 O     0.05355    0.07177   -0.00701
 31 O    -0.06994    0.02003    0.09350
 32 O     0.03748    0.02929   -0.10384
 33 O    -0.00957   -0.02508   -0.01650
 34 O    -0.07854    0.00668    0.22724
 35 O    -0.04835   -0.02741   -0.00571
 36 O    -1.83308    0.00382    1.55897
 37 O    -2.07621    0.00242    1.55119
 38 Ti    3.59978   -0.00615    1.64093
 39 Ti    3.87505   -0.02330    2.00197
 40 Ti   -1.97344    0.00418   -1.52190
 41 Ti   -1.43651   -0.01685   -2.08961
 42 O     0.96038    0.01988   -0.19464
 43 O     0.83514    0.04463   -0.21752
 44 O    -0.67130    0.01290   -0.77358
 45 O    -0.81029    0.01676   -0.68374
 46 O    -0.32531    0.00450   -0.85948
 47 O    -0.19470   -0.01791   -0.88318
 48 O    -0.00102   -0.00053   -0.01243
 49 O     0.02986   -0.00556    0.09530
 50 Ti   -0.02125   -0.06911    0.01374
 51 Ti    0.10120    0.00179    0.07138
 52 Ti   -0.00263   -0.00806    0.09739
 53 Ti    0.03982    0.08408   -0.07144
 54 O     0.00780    0.02923   -0.00688
 55 O    -0.01663    0.00951   -0.01487
 56 O    -0.00104    0.01453    0.00171
 57 O     0.06414    0.01807    0.13622
 58 O    -0.02032   -0.03264   -0.00823
 59 O     0.05987   -0.02857    0.08118
 60 O     0.02712   -0.01354   -0.02325
 61 O    -0.06054   -0.01703    0.04321
 62 Ti   -0.08422   -0.09799    0.09222
 63 Ti   -0.00159   -0.00670   -0.10766
 64 Ti   -0.02834   -0.02050    0.10573
 65 Ti   -0.02441    0.03894    0.05985
 66 O     0.15489    0.03189    0.10132
 67 O     0.11487    0.05547    0.06546
 68 O     0.01537    0.00031   -0.14524
 69 O     0.10485    0.01189   -0.09642
 70 O    -0.08901   -0.02525   -0.02539
 71 O    -0.04281   -0.07797    0.00114
 72 O    -1.85064   -0.00053    1.56824
 73 O    -1.98831    0.00274    1.57730
 74 Ti    3.64951    0.02046    1.74648
 75 Ti    3.82778   -0.00584    1.93976
 76 Ti   -1.86341    0.01709   -1.47576
 77 Ti   -1.53247   -0.03624   -1.81684
 78 O     0.94776    0.02540   -0.21236
 79 O     0.85410   -0.00024   -0.20614
 80 O    -0.67378   -0.00718   -0.64757
 81 O    -0.76110    0.01404   -0.67172
 82 O    -0.31745    0.03376   -0.89403
 83 O    -0.21885   -0.01714   -0.86528
 84 O     0.00424   -0.00239    0.01235
 85 O     0.04909   -0.01794    0.04425
 86 Ti   -0.04483   -0.08445    0.02660
 87 Ti    0.05598   -0.01680    0.10708
 88 Ti    0.00269    0.02270    0.01162
 89 Ti    0.02919    0.08206   -0.02369
 90 O     0.02981    0.03974    0.00861
 91 O     0.01527    0.02186   -0.01400
 92 O    -0.00786    0.02216   -0.01947
 93 O     0.08992    0.03434    0.07408
 94 O     0.00126   -0.03091    0.05118
 95 O     0.03996    0.00684    0.08409
 96 O     0.02307    0.00279   -0.06065
 97 O     0.01857   -0.02330    0.06537
 98 Ti   -0.09179   -0.05759    0.01984
 99 Ti    0.08938   -0.04756   -0.10349
100 Ti   -0.12201    0.02474   -0.07332
101 Ti   -0.00120    0.02331   -0.01858
102 O     0.06373   -0.00327    0.02862
103 O    -0.09975   -0.04754   -0.01672
104 O     0.02609   -0.01254   -0.11104
105 O    -0.02957    0.02613    0.02120
106 O    -0.04223   -0.00241   -0.03288
107 O    -0.00072   -0.00783   -0.03582
108 V    -0.11364    0.02726   -0.05186
109 V    -0.01600    0.01274   -0.13348
110 O    -0.15430   -0.19048   -0.11073
111 O     0.13567   -0.00073    0.25992
112 O    -0.06656    0.01559    0.08398
113 O    -0.08598   -0.13902   -0.08072
114 O    -0.06347    0.01266    0.16289
115 O    -0.08030    0.15428   -0.07270
116 H     0.20796    0.06802    0.05004
117 H    -0.10631    0.14230    0.16341

System changes: positions 

Initializing position-dependent things.

Density initialized from wave functions
                                                
                                                
                                                
                                                
                                                
                                                
                           O                    
                     O   V O  H                 
             O                 O H              
                  TiO    O      O               
                 OOV  O              Ti         
           O   Ti            Ti   O             
               O      OiO    O                  
         O     OO   OTi    Tii   OTi            
             Tii   TiO    OOO  O                
             OO   OO    O Ti    Tii             
          O Ti     Ti   TiO  O O     O          
            O   OTiO   O      TiO               
                TiO   OTiO  O O    O Ti         
[...]
   5 Ti     4.351376    0.000000    7.640878    ( 0.0000,  0.0000,  0.0000)
   6 O      9.861551    0.000000    7.505914    ( 0.0000,  0.0000,  0.0000)
   7 O      4.690678    1.911173    7.505914    ( 0.0000,  0.0000,  0.0000)
   8 O      7.629303    1.911173    8.393834    ( 0.0000,  0.0000,  0.0000)
   9 O      2.458430    0.000000    8.393834    ( 0.0000,  0.0000,  0.0000)
  10 O      6.244323    0.000000    6.887921    ( 0.0000,  0.0000,  0.0000)
  11 O      1.073450    1.911173    6.887921    ( 0.0000,  0.0000,  0.0000)
  12 O      9.817265    1.913658    9.623278    ( 0.0000,  0.0000,  0.0000)
  13 O      4.631865   11.470010    9.589220    ( 0.0000,  0.0000,  0.0000)
  14 Ti     2.741463   11.477874   10.342281    ( 0.0000,  0.0000,  0.0000)
  15 Ti     8.037874    1.918489   10.381785    ( 0.0000,  0.0000,  0.0000)
  16 Ti     0.528618    1.921450   11.315865    ( 0.0000,  0.0000,  0.0000)
  17 Ti     5.733526   11.473444   11.101194    ( 0.0000,  0.0000,  0.0000)
  18 O      0.933016   11.474527   11.104661    ( 0.0000,  0.0000,  0.0000)
  19 O      6.109926    1.923596   11.034706    ( 0.0000,  0.0000,  0.0000)
  20 O      9.028510    1.933315   12.010411    ( 0.0000,  0.0000,  0.0000)
  21 O      3.870523   11.466129   11.938441    ( 0.0000,  0.0000,  0.0000)
  22 O      7.606446   11.468569   10.496393    ( 0.0000,  0.0000,  0.0000)
  23 O      2.402796    1.921542   10.505978    ( 0.0000,  0.0000,  0.0000)
  24 O      0.884056    1.918476   13.198851    ( 0.0000,  0.0000,  0.0000)
  25 O      6.083121    0.131392   13.085309    ( 0.0000,  0.0000,  0.0000)
  26 Ti     4.088143    0.042663   13.823822    ( 0.0000,  0.0000,  0.0000)
  27 Ti     9.496804    1.947353   14.077942    ( 0.0000,  0.0000,  0.0000)
  28 Ti     1.966905    1.938879   15.027441    ( 0.0000,  0.0000,  0.0000)
  29 Ti     7.066215    0.044256   14.561887    ( 0.0000,  0.0000,  0.0000)
  30 O      2.371680    0.042169   14.794702    ( 0.0000,  0.0000,  0.0000)
  31 O      7.460898    1.921654   14.891665    ( 0.0000,  0.0000,  0.0000)
  32 O      0.209039    1.952518   15.583487    ( 0.0000,  0.0000,  0.0000)
  33 O      5.339977   11.181851   15.477624    ( 0.0000,  0.0000,  0.0000)
  34 O      8.989905    0.045633   14.103875    ( 0.0000,  0.0000,  0.0000)
  35 O      3.862746    1.909883   13.965988    ( 0.0000,  0.0000,  0.0000)
  36 O      8.476572    5.733518    6.000000    ( 0.0000,  0.0000,  0.0000)
  37 O      3.305699    3.822345    6.000000    ( 0.0000,  0.0000,  0.0000)
  38 Ti     1.412752    3.822345    6.752957    ( 0.0000,  0.0000,  0.0000)
  39 Ti     6.583625    5.733518    6.752957    ( 0.0000,  0.0000,  0.0000)
  40 Ti     9.522250    5.733518    7.640878    ( 0.0000,  0.0000,  0.0000)
  41 Ti     4.351376    3.822345    7.640878    ( 0.0000,  0.0000,  0.0000)
  42 O      9.861551    3.822345    7.505914    ( 0.0000,  0.0000,  0.0000)
  43 O      4.690678    5.733518    7.505914    ( 0.0000,  0.0000,  0.0000)
  44 O      7.629303    5.733518    8.393834    ( 0.0000,  0.0000,  0.0000)
  45 O      2.458430    3.822345    8.393834    ( 0.0000,  0.0000,  0.0000)
  46 O      6.244323    3.822345    6.887921    ( 0.0000,  0.0000,  0.0000)
  47 O      1.073450    5.733518    6.887921    ( 0.0000,  0.0000,  0.0000)
  48 O      9.815726    5.748666    9.625431    ( 0.0000,  0.0000,  0.0000)
  49 O      4.639378    3.834233    9.575282    ( 0.0000,  0.0000,  0.0000)
  50 Ti     2.730258    3.834434   10.322244    ( 0.0000,  0.0000,  0.0000)
  51 Ti     8.036001    5.746803   10.382380    ( 0.0000,  0.0000,  0.0000)
  52 Ti     0.533886    5.752635   11.314716    ( 0.0000,  0.0000,  0.0000)
  53 Ti     5.748978    3.825458   11.081013    ( 0.0000,  0.0000,  0.0000)
  54 O      0.932763    3.834287   11.101654    ( 0.0000,  0.0000,  0.0000)
  55 O      6.114117    5.739704   11.065010    ( 0.0000,  0.0000,  0.0000)
  56 O      9.031309    5.740479   12.014195    ( 0.0000,  0.0000,  0.0000)
  57 O      3.891236    3.838070   11.896987    ( 0.0000,  0.0000,  0.0000)
  58 O      7.614939    3.832909   10.485489    ( 0.0000,  0.0000,  0.0000)
  59 O      2.407045    5.746109   10.508229    ( 0.0000,  0.0000,  0.0000)
  60 O      0.880207    5.757385   13.199656    ( 0.0000,  0.0000,  0.0000)
  61 O      6.095950    3.813266   13.108253    ( 0.0000,  0.0000,  0.0000)
  62 Ti     4.067602    3.851689   13.754961    ( 0.0000,  0.0000,  0.0000)
  63 Ti     9.480160    5.718395   14.062759    ( 0.0000,  0.0000,  0.0000)
  64 Ti     1.957651    5.751428   15.025975    ( 0.0000,  0.0000,  0.0000)
  65 Ti     6.995354    3.811496   14.631479    ( 0.0000,  0.0000,  0.0000)
  66 O      2.319307    3.842206   14.468339    ( 0.0000,  0.0000,  0.0000)
  67 O      7.452788    5.715189   14.851407    ( 0.0000,  0.0000,  0.0000)
  68 O      0.194690    5.752000   15.576082    ( 0.0000,  0.0000,  0.0000)
  69 O      5.209224    3.840780   15.533969    ( 0.0000,  0.0000,  0.0000)
  70 O      8.928745    3.829458   14.123034    ( 0.0000,  0.0000,  0.0000)
  71 O      3.862816    5.774403   13.966707    ( 0.0000,  0.0000,  0.0000)
  72 O      8.476572    9.555862    6.000000    ( 0.0000,  0.0000,  0.0000)
  73 O      3.305699    7.644690    6.000000    ( 0.0000,  0.0000,  0.0000)
  74 Ti     1.412752    7.644690    6.752957    ( 0.0000,  0.0000,  0.0000)
  75 Ti     6.583625    9.555862    6.752957    ( 0.0000,  0.0000,  0.0000)
  76 Ti     9.522250    9.555862    7.640878    ( 0.0000,  0.0000,  0.0000)
  77 Ti     4.351376    7.644690    7.640878    ( 0.0000,  0.0000,  0.0000)
  78 O      9.861551    7.644690    7.505914    ( 0.0000,  0.0000,  0.0000)
  79 O      4.690678    9.555862    7.505914    ( 0.0000,  0.0000,  0.0000)
  80 O      7.629303    9.555862    8.393834    ( 0.0000,  0.0000,  0.0000)
  81 O      2.458430    7.644690    8.393834    ( 0.0000,  0.0000,  0.0000)
  82 O      6.244323    7.644690    6.887921    ( 0.0000,  0.0000,  0.0000)
  83 O      1.073450    9.555862    6.887921    ( 0.0000,  0.0000,  0.0000)
  84 O      9.814758    9.561109    9.630595    ( 0.0000,  0.0000,  0.0000)
  85 O      4.640226    7.647113    9.606940    ( 0.0000,  0.0000,  0.0000)
  86 Ti     2.770612    7.656345   10.336068    ( 0.0000,  0.0000,  0.0000)
  87 Ti     8.029944    9.559948   10.378638    ( 0.0000,  0.0000,  0.0000)
  88 Ti     0.543169    9.557542   11.307083    ( 0.0000,  0.0000,  0.0000)
  89 Ti     5.741487    7.644380   11.167501    ( 0.0000,  0.0000,  0.0000)
  90 O      0.937519    7.656771   11.109099    ( 0.0000,  0.0000,  0.0000)
  91 O      6.117750    9.564391   11.095364    ( 0.0000,  0.0000,  0.0000)
  92 O      9.053011    9.563303   12.024410    ( 0.0000,  0.0000,  0.0000)
  93 O      3.875257    7.686893   11.952890    ( 0.0000,  0.0000,  0.0000)
  94 O      7.605317    7.657525   10.507953    ( 0.0000,  0.0000,  0.0000)
  95 O      2.402983    9.563359   10.497203    ( 0.0000,  0.0000,  0.0000)
  96 O      0.925273    9.580745   13.210652    ( 0.0000,  0.0000,  0.0000)
  97 O      6.083529    7.576010   13.163397    ( 0.0000,  0.0000,  0.0000)
  98 Ti     4.127509    7.649023   13.831713    ( 0.0000,  0.0000,  0.0000)
  99 Ti     9.441230    9.593975   14.047711    ( 0.0000,  0.0000,  0.0000)
 100 Ti     1.913826    9.562209   14.964770    ( 0.0000,  0.0000,  0.0000)
 101 Ti     7.118875    7.601293   14.705731    ( 0.0000,  0.0000,  0.0000)
 102 O      2.374492    7.643156   14.808786    ( 0.0000,  0.0000,  0.0000)
 103 O      7.539461    9.609071   14.720702    ( 0.0000,  0.0000,  0.0000)
 104 O      0.187045    9.550653   15.578435    ( 0.0000,  0.0000,  0.0000)
 105 O      5.286047    8.009445   15.488997    ( 0.0000,  0.0000,  0.0000)
 106 O      8.959439    7.640014   14.124275    ( 0.0000,  0.0000,  0.0000)
 107 O      3.783390    9.581415   13.946064    ( 0.0000,  0.0000,  0.0000)
 108 V      4.793520    9.588508   16.307703    ( 0.0000,  0.0000,  0.0000)
 109 V      3.868059    3.842226   16.838711    ( 0.0000,  0.0000,  0.0000)
 110 O      7.654210    7.710314   16.874410    ( 0.0000,  0.0000,  0.0000)
 111 O      4.543073    3.839787   18.275035    ( 0.0000,  0.0000,  0.0000)
 112 O      3.104445    9.592111   16.584765    ( 0.0000,  0.0000,  0.0000)
 113 O      2.880482    2.377945   16.613329    ( 0.0000,  0.0000,  0.0000)
 114 O      5.608387    9.531694   17.695454    ( 0.0000,  0.0000,  0.0000)
 115 O      2.872468    5.303234   16.610736    ( 0.0000,  0.0000,  0.0000)
 116 H      8.576714    7.979145   17.057652    ( 0.0000,  0.0000,  0.0000)
 117 H      7.067919    8.345841   17.364026    ( 0.0000,  0.0000,  0.0000)

Unit cell:
           periodic     x           y           z      points  spacing
  1. axis:    yes   10.341746    0.000000    0.000000    54     0.1915
  2. axis:    yes   -0.000000   11.467000    0.000000    60     0.1911
  3. axis:    no     0.000000    0.000000   23.497201   125     0.1880

  Lengths:  10.341746  11.467000  23.497201
  Angles:   90.000000  90.000000  90.000000

Effective grid spacing dv^(1/3) = 0.1902

                     log10-error:    total        iterations:
           time      wfs    density  energy       fermi  poisson
iter:   1  05:18:03  -4.90   +inf  -971.264153    2             
iter:   2  05:18:59  -5.84  -4.14  -971.264128    1             
iter:   3  05:19:55  -5.51  -4.16  -971.264029    1             
iter:   4  05:20:50  -6.77  -4.40  -971.264028    1             
iter:   5  05:21:46  -6.91  -4.41  -971.264026    1             
iter:   6  05:22:42  -6.08  -4.45  -971.264018    1             
iter:   7  05:23:38  -7.17  -4.67  -971.264004    1             
iter:   8  05:24:33  -7.64  -5.00  -971.264004    1             

Converged after 8 iterations.

Dipole moment: (-11.744148, -14.419589, -1.265257) |e|*Ang

Energy contributions relative to reference atoms: (reference = -1046916.965077)

Kinetic:       +672.349927
Potential:     -868.683435
External:        +0.000000
XC:            -782.762377
Entropy (-ST):   -0.000521
Local:           +7.832142
--------------------------
Free energy:   -971.264264
Extrapolated:  -971.264004

Fermi level: -0.68384

Showing only first 2 kpts
 Kpt  Band  Eigenvalues  Occupancy
  0   462     -1.74862    0.22222
  0   463     -1.73932    0.22222
  0   464      0.15646    0.00005
  0   465      0.35583    0.00001

  1   462     -1.77525    0.44444
  1   463     -1.72800    0.44443
  1   464      0.34226    0.00002
  1   465      0.49871    0.00000



Forces in eV/Ang:
  0 O    -1.83055   -0.00065    1.54138
  1 O    -1.96583   -0.00095    1.58520
  2 Ti    3.64054    0.00151    1.77459
  3 Ti    3.93746    0.01791    2.03576
  4 Ti   -1.99664   -0.00109   -1.44850
  5 Ti   -1.59119    0.01642   -1.95934
  6 O     0.95143   -0.02308   -0.21006
  7 O     0.80925   -0.01011   -0.18664
  8 O    -0.62780    0.00006   -0.70606
  9 O    -0.70914    0.01845   -0.50210
 10 O    -0.33236   -0.03085   -0.85877
 11 O    -0.18167    0.02457   -0.90056
 12 O     0.00080    0.00005   -0.00146
 13 O     0.00012    0.00018   -0.00072
 14 Ti   -0.00175   -0.00039   -0.00090
 15 Ti   -0.00021   -0.00112   -0.00271
 16 Ti   -0.00072    0.00315   -0.00531
 17 Ti   -0.00001    0.00470   -0.00151
 18 O    -0.00078    0.00475   -0.00039
 19 O    -0.00054    0.00421   -0.00158
 20 O    -0.00206   -0.00013    0.00071
 21 O    -0.00107    0.00133   -0.00137
 22 O    -0.00090   -0.00311   -0.00128
 23 O    -0.00022   -0.00094   -0.00091
 24 O    -0.00104    0.00084    0.00143
 25 O    -0.00054   -0.00126   -0.00151
 26 Ti    0.00155   -0.00332   -0.00120
 27 Ti   -0.00260    0.00065    0.00127
 28 Ti   -0.00195   -0.00035    0.00011
 29 Ti   -0.00249   -0.00060    0.00058
 30 O    -0.00125    0.00284   -0.00077
 31 O    -0.00326   -0.00148    0.00103
 32 O    -0.00261    0.00097    0.00128
 33 O    -0.00324    0.00149    0.00261
 34 O    -0.00022   -0.00009    0.00061
 35 O     0.00022    0.00078   -0.00064
 36 O    -1.82625    0.00389    1.54661
 37 O    -2.02987    0.00213    1.56914
 38 Ti    3.57942   -0.00464    1.67126
 39 Ti    3.91984   -0.01313    2.03515
 40 Ti   -1.99302   -0.00191   -1.43791
 41 Ti   -1.44450    0.00002   -2.01338
 42 O     0.96841    0.01727   -0.20506
 43 O     0.81015    0.03983   -0.20201
 44 O    -0.63261    0.02797   -0.65941
 45 O    -0.73142    0.01511   -0.52292
 46 O    -0.34166    0.00269   -0.89088
 47 O    -0.18280   -0.01721   -0.89757
 48 O     0.00082    0.00034   -0.00077
 49 O     0.00031    0.00066   -0.00084
 50 Ti    0.00088   -0.00129   -0.00123
 51 Ti   -0.00142   -0.00286   -0.00384
 52 Ti   -0.00167    0.00224   -0.00459
 53 Ti   -0.00082    0.00396   -0.00192
 54 O     0.00026    0.00425   -0.00201
 55 O    -0.00026    0.00217   -0.00173
 56 O    -0.00379    0.00053   -0.00096
 57 O    -0.00052    0.00126    0.00104
 58 O    -0.00084   -0.00331   -0.00218
 59 O    -0.00086   -0.00307   -0.00076
 60 O     0.00011    0.00153    0.00263
 61 O    -0.00078    0.00062   -0.00164
 62 Ti    0.00189   -0.00586    0.00144
 63 Ti   -0.00310    0.00127    0.00082
 64 Ti   -0.00228    0.00362    0.00120
 65 Ti   -0.00080    0.00064    0.00029
 66 O    -0.00083    0.00168    0.00199
 67 O    -0.00225    0.00080    0.00048
 68 O    -0.00418    0.00092    0.00070
 69 O    -0.00439    0.00075    0.00306
 70 O     0.00073    0.00131   -0.00081
 71 O     0.00006    0.00061    0.00000
 72 O    -1.82852    0.00047    1.56687
 73 O    -1.94695    0.00127    1.59184
 74 Ti    3.63527    0.00768    1.77424
 75 Ti    3.87276   -0.00253    1.99017
 76 Ti   -1.93266    0.00319   -1.46863
 77 Ti   -1.53964   -0.02497   -1.75670
 78 O     0.95500    0.03606   -0.21530
 79 O     0.82563   -0.00527   -0.18496
 80 O    -0.61407   -0.00073   -0.57520
 81 O    -0.66929    0.01368   -0.49135
 82 O    -0.33773    0.02854   -0.89840
 83 O    -0.20593   -0.00716   -0.89152
 84 O     0.00006    0.00016   -0.00030
 85 O    -0.00057   -0.00009   -0.00281
 86 Ti   -0.00049   -0.00236   -0.00077
 87 Ti   -0.00293   -0.00225    0.00143
 88 Ti   -0.00020    0.00242   -0.00497
 89 Ti   -0.00132    0.00287   -0.00329
 90 O     0.00021    0.00237   -0.00150
 91 O    -0.00172    0.00373   -0.00110
 92 O    -0.00038    0.00128   -0.00036
 93 O     0.00029    0.00126    0.00052
 94 O     0.00081   -0.00465   -0.00118
 95 O    -0.00135   -0.00217   -0.00105
 96 O    -0.00255    0.00149    0.00038
 97 O    -0.00161    0.00083   -0.00549
 98 Ti    0.00129   -0.00499    0.00228
 99 Ti   -0.00166    0.00012    0.00567
100 Ti   -0.00396    0.00266    0.00140
101 Ti   -0.00294    0.00117   -0.00074
102 O    -0.00044    0.00306    0.00041
103 O    -0.00066    0.00013    0.00402
104 O    -0.00134    0.00138    0.00145
105 O    -0.00290    0.00067   -0.00090
106 O     0.00015    0.00006   -0.00109
107 O    -0.00168    0.00240    0.00029
108 V    -0.00091   -0.00087   -0.00085
109 V    -0.00443    0.00119   -0.00729
110 O    -0.00336   -0.00743   -0.00208
111 O    -0.00347    0.00002   -0.00379
112 O    -0.00125    0.00201   -0.00001
113 O     0.00189    0.00211    0.00157
114 O     0.00022   -0.00306   -0.00124
115 O     0.00115   -0.00159    0.00198
116 H    -0.00288    0.00175    0.00224
117 H    -0.00852   -0.00255   -0.00005

Timing:                                      incl.     excl.
-------------------------------------------------------------------
Density initialized from wave functions:   111.950   111.949   0.3% |
 Symmetrize density:                         0.001     0.001   0.0% |
Forces:                                    755.516   755.516   2.0% ||
Hamiltonian:                                42.989     0.778   0.0% |
 Atomic:                                    10.649     0.084   0.0% |
  XC Correction:                            10.565    10.565   0.0% |
 Calculate atomic Hamiltonians:             20.325    20.325   0.1% |
 Communicate:                                4.771     4.771   0.0% |
 Initialize Hamiltonian:                     0.001     0.001   0.0% |
 Poisson:                                    0.047     0.047   0.0% |
 XC 3D grid:                                 6.419     6.419   0.0% |
LCAO initialization:                       191.812     1.908   0.0% |
 LCAO eigensolver:                          67.258     0.110   0.0% |
  Calculate projections:                     0.000     0.000   0.0% |
  DenseAtomicCorrection:                     0.001     0.001   0.0% |
  Distribute overlap matrix:                 5.206     5.206   0.0% |
  Orbital Layouts:                          55.888    55.888   0.2% |
  Potential matrix:                          0.037     0.037   0.0% |
  Sum over cells:                            6.015     6.015   0.0% |
 LCAO to grid:                             117.198   117.198   0.3% |
 Set positions (LCAO WFS):                   5.448     4.496   0.0% |
  Basic WFS set positions:                   0.003     0.003   0.0% |
  Basis functions set positions:             0.001     0.001   0.0% |
  P tci:                                     0.007     0.007   0.0% |
  ST tci:                                    0.639     0.639   0.0% |
  mktci:                                     0.302     0.302   0.0% |
PWDescriptor:                                0.173     0.173   0.0% |
Redistribute:                                0.073     0.073   0.0% |
SCF-cycle:                               35938.915     0.946   0.0% |
 Davidson:                               34153.444  8139.175  21.8% |--------|
  Apply H:                                4946.206  4758.195  12.8% |----|
   HMM T:                                  188.011   188.011   0.5% |
  Subspace diag:                          3787.295     0.456   0.0% |
   calc_h_matrix:                         2239.740   593.112   1.6% ||
    Apply H:                              1646.628  1578.397   4.2% |-|
     HMM T:                                 68.231    68.231   0.2% |
   diagonalize:                            468.489   468.489   1.3% ||
   rotate_psi:                            1078.610  1078.610   2.9% ||
  calc. matrices:                         7647.283  4399.917  11.8% |----|
   Apply H:                               3247.366  3132.269   8.4% |--|
    HMM T:                                 115.097   115.097   0.3% |
  diagonalize:                            7317.864  7317.864  19.6% |-------|
  rotate_psi:                             2315.622  2315.622   6.2% |-|
 Density:                                 1091.253     0.016   0.0% |
  Atomic density matrices:                   7.111     7.111   0.0% |
  Mix:                                     224.685   224.685   0.6% |
  Multipole moments:                         0.222     0.222   0.0% |
  Pseudo density:                          859.218   859.207   2.3% ||
   Symmetrize density:                       0.012     0.012   0.0% |
 Hamiltonian:                              409.478     7.457   0.0% |
  Atomic:                                  101.604     1.286   0.0% |
   XC Correction:                          100.318   100.318   0.3% |
  Calculate atomic Hamiltonians:           193.705   193.705   0.5% |
  Communicate:                              45.116    45.116   0.1% |
  Poisson:                                   0.412     0.412   0.0% |
  XC 3D grid:                               61.184    61.184   0.2% |
 Orthonormalize:                           283.794     0.068   0.0% |
  calc_s_matrix:                            27.404    27.404   0.1% |
  inverse-cholesky:                         23.858    23.858   0.1% |
  projections:                             182.007   182.007   0.5% |
  rotate_psi_s:                             50.457    50.457   0.1% |
Set symmetry:                                0.001     0.001   0.0% |
Other:                                     209.322   209.322   0.6% |
-------------------------------------------------------------------
Total:                                             37250.751 100.0%

Memory usage: 1.36 GiB
Date: Sat May 25 05:24:46 2019
