
  ___ ___ ___ _ _ _  
 |   |   |_  | | | | 
 | | | | | . | | | | 
 |__ |  _|___|_____|  1.5.1
 |___|_|             

User:   siva@s82n15.grendel.cscaa.dk
Date:   Fri May 24 21:05:42 2019
Arch:   x86_64
Pid:    2393
Python: 3.6.3
gpaw:   /home/siva/gpaw-1.5.1/gpaw
_gpaw:  /home/siva/gpaw-1.5.1/build/bin.linux-x86_64-3.6/gpaw-python
ase:    /home/siva/env1.5/lib/python3.6/site-packages/ase (version 3.17.0)
numpy:  /home/siva/env1.5/lib/python3.6/site-packages/numpy (version 1.16.0)
scipy:  /home/siva/env1.5/lib/python3.6/site-packages/scipy (version 1.2.0)
units:  Angstrom and eV
cores:  28
Extra parameters: {'blacs': True}

Input parameters:
  basis: dzp
  kpts: [3 3 1]
  mode: {ecut: 500.0,
         gammacentered: False,
         name: pw}
  xc: PBE

System changes: positions, numbers, cell, pbc, initial_charges, initial_magmoms 

Initialize ...

O-setup:
  name: Oxygen
  id: 32ecd46bf208036f09c70b0ec9a88b78
  Z: 8
  valence: 6
  core: 2
  charge: 0.0
  file: /home/wido/sw/gpaw/basis/gpaw-setups-0.9.20000/O.PBE.gz
  cutoffs: 0.67(comp), 1.17(filt), 0.83(core), lmax=2
  valence states:
                energy  radius
    2s(2.00)   -23.961   0.688
    2p(4.00)    -9.029   0.598
    *s           3.251   0.688
    *p          18.182   0.598
    *d           0.000   0.619

  LCAO basis set for O:
    Name: dzp
    File: /home/wido/sw/gpaw/basis/gpaw-setups-0.9.20000/O.dzp.basis.gz
    Number of radial functions: 5
    Number of spherical harmonics: 13
      l=0, rc=4.3438 Bohr: 2s-sz confined orbital
      l=1, rc=5.3906 Bohr: 2p-sz confined orbital
      l=0, rc=2.2969 Bohr: 2s-dz split-valence wave
      l=1, rc=2.8906 Bohr: 2p-dz split-valence wave
      l=2, rc=5.3906 Bohr: d-type Gaussian polarization

Ti-setup:
  name: Titanium
  id: d282db07e62ae71292040bf25b25ccdd
  Z: 22
  valence: 12
  core: 10
  charge: 0.0
  file: /home/wido/sw/gpaw/basis/gpaw-setups-0.9.20000/Ti.PBE.gz
  cutoffs: 1.22(comp), 2.23(filt), 1.02(core), lmax=2
  valence states:
                energy  radius
    3s(2.00)   -62.623   1.270
    4s(2.00)    -4.466   1.270
    3p(6.00)   -38.862   1.058
    4p(0.00)    -1.466   1.058
    3d(2.00)    -4.258   1.058
    *d          22.953   1.058

  LCAO basis set for Ti:
    Name: dzp
    File: /home/wido/sw/gpaw/basis/gpaw-setups-0.9.20000/Ti.dzp.basis.gz
    Number of radial functions: 11
    Number of spherical harmonics: 29
      l=0, rc=3.4375 Bohr: 3s-sz confined orbital
      l=0, rc=9.9062 Bohr: 4s-sz confined orbital
      l=1, rc=3.8906 Bohr: 3p-sz confined orbital
      l=1, rc=13.1094 Bohr: 4p-sz confined orbital
      l=2, rc=6.6250 Bohr: 3d-sz confined orbital
      l=0, rc=2.1406 Bohr: 3s-dz split-valence wave
      l=0, rc=6.0156 Bohr: 4s-dz split-valence wave
      l=1, rc=2.3125 Bohr: 3p-dz split-valence wave
      l=1, rc=8.1094 Bohr: 4p-dz split-valence wave
      l=2, rc=3.8594 Bohr: 3d-dz split-valence wave
      l=1, rc=9.9062 Bohr: p-type Gaussian polarization

V-setup:
  name: Vanadium
  id: a8354638d66c808f8c867a10b63fd727
  Z: 23
  valence: 13
  core: 10
  charge: 0.0
  file: /home/wido/sw/gpaw/basis/gpaw-setups-0.9.20000/V.PBE.gz
  cutoffs: 1.19(comp), 2.14(filt), 0.96(core), lmax=2
  valence states:
                energy  radius
    3s(2.00)   -70.222   1.254
    4s(2.00)    -4.702   1.254
    3p(6.00)   -44.043   1.281
    4p(0.00)    -1.444   1.281
    3d(3.00)    -5.164   1.169
    *d          22.047   1.169

  LCAO basis set for V:
    Name: dzp
    File: /home/wido/sw/gpaw/basis/gpaw-setups-0.9.20000/V.dzp.basis.gz
    Number of radial functions: 11
    Number of spherical harmonics: 29
      l=0, rc=3.2656 Bohr: 3s-sz confined orbital
      l=0, rc=9.5312 Bohr: 4s-sz confined orbital
      l=1, rc=3.6719 Bohr: 3p-sz confined orbital
      l=1, rc=12.8750 Bohr: 4p-sz confined orbital
      l=2, rc=6.0938 Bohr: 3d-sz confined orbital
      l=0, rc=2.0625 Bohr: 3s-dz split-valence wave
      l=0, rc=5.7656 Bohr: 4s-dz split-valence wave
      l=1, rc=2.4062 Bohr: 3p-dz split-valence wave
      l=1, rc=7.8906 Bohr: 4p-dz split-valence wave
      l=2, rc=3.6562 Bohr: 3d-dz split-valence wave
      l=1, rc=9.5312 Bohr: p-type Gaussian polarization

Reference energy: -1044851.132452

Spin-paired calculation

Occupation numbers:
  Fermi-Dirac: width=0.1000 eV

Convergence criteria:
  Maximum total energy change: 0.0005 eV / electron
  Maximum integral of absolute density change: 0.0001 electrons
  Maximum integral of absolute eigenstate change: 4e-08 eV^2
  Maximum number of iterations: 333

Symmetries present (total): 1

  ( 1  0  0)
  ( 0  1  0)
  ( 0  0  1)

9 k-points: 3 x 3 x 1 Monkhorst-Pack grid
5 k-points in the irreducible part of the Brillouin zone
       k-points in crystal coordinates                weights
   0:     0.00000000    0.00000000    0.00000000          1/9
   1:     0.00000000    0.33333333    0.00000000          2/9
   2:     0.33333333   -0.33333333    0.00000000          2/9
   3:     0.33333333    0.00000000    0.00000000          2/9
   4:     0.33333333    0.33333333    0.00000000          2/9

Wave functions: Plane wave expansion
  Cutoff energy: 500.000 eV
  Number of coefficients (min, max): 70673, 70768
  Pulay-stress correction: 0.000000 eV/Ang^3 (de/decut=0.000000)
  Using FFTW library
  ScaLapack parameters: grid=1x1, blocksize=None
  Wavefunction extrapolation:
    Improved wavefunction reuse through dual PAW basis 

Eigensolver
   Davidson(niter=2, smin=None, normalize=True) 

Densities:
  Coarse grid: 54*60*125 grid
  Fine grid: 108*120*250 grid
  Total Charge: 0.000000 

Density mixing:
  Method: separate
  Backend: pulay
  Linear mixing parameter: 0.05
  Mixing with 5 old densities
  Damping of long wave oscillations: 50 

Hamiltonian:
  XC and Coulomb potentials evaluated on a 108*120*250 grid
  Using the PBE Exchange-Correlation functional
 

XC parameters: PBE with 2 nearest neighbor stencil

Memory estimate:
  Process memory now: 276.45 MiB
  Calculator: 3687.11 MiB
    Density: 8.19 MiB
      Arrays: 2.89 MiB
      Localized functions: 4.19 MiB
      Mixer: 1.11 MiB
    Hamiltonian: 2.00 MiB
      Arrays: 1.89 MiB
      XC: 0.00 MiB
      Poisson: 0.00 MiB
      vbar: 0.11 MiB
    Wavefunctions: 3676.92 MiB
      Arrays psit_nG: 3001.94 MiB
      Eigensolver: 652.97 MiB
      Projections: 2.55 MiB
      Projectors: 2.51 MiB
      PW-descriptor: 16.94 MiB

Total number of cores used: 28
Domain decomposition: 2 x 2 x 7

Number of atoms: 115
Number of atomic orbitals: 2103
Number of bands in calculation: 556
Bands to converge: occupied states only
Number of valence electrons: 920

... initialized

Initializing position-dependent things.

Density initialized from atomic densities
Creating initial wave functions:
  556 bands from LCAO basis set

                                                
                                                
                                                
                                                
                                                
                                                
                         O                      
                          V O                   
              O     O   O     O                 
                  TO V   O      O               
                  O    O      Ti     Ti         
           O   Ti       O         O             
                O     TO   OTO    Ti            
         O     O    OTi    Ti    O O            
             Tii   TiO    OOO   O               
              O   OO    TiTi   TiOi             
          O Ti   TiOi     O  O O     O          
            O   O     OOTi    TiO               
                TiO      O  O O    O Ti         
         Ti   O O    O Oi    Ti     O           
               Ti          OTi    Ti            
             O O    O O         O               
                    Ti     Oi     O             
             Oi     O    O      Ti              
           O      Ti    Ti     O                
          Ti          O      O                  
               O                                
                                                
                                                
                                                
                                                

Positions:
   0 O      8.476572    1.911173    6.000000    ( 0.0000,  0.0000,  0.0000)
   1 O      3.305699    0.000000    6.000000    ( 0.0000,  0.0000,  0.0000)
   2 Ti     1.412752    0.000000    6.752957    ( 0.0000,  0.0000,  0.0000)
   3 Ti     6.583625    1.911173    6.752957    ( 0.0000,  0.0000,  0.0000)
   4 Ti     9.522250    1.911173    7.640878    ( 0.0000,  0.0000,  0.0000)
   5 Ti     4.351376    0.000000    7.640878    ( 0.0000,  0.0000,  0.0000)
   6 O      9.861551    0.000000    7.505914    ( 0.0000,  0.0000,  0.0000)
   7 O      4.690678    1.911173    7.505914    ( 0.0000,  0.0000,  0.0000)
   8 O      7.629303    1.911173    8.393834    ( 0.0000,  0.0000,  0.0000)
   9 O      2.458430    0.000000    8.393834    ( 0.0000,  0.0000,  0.0000)
  10 O      6.244323    0.000000    6.887921    ( 0.0000,  0.0000,  0.0000)
  11 O      1.073450    1.911173    6.887921    ( 0.0000,  0.0000,  0.0000)
  12 O      9.817276    1.900997    9.592462    ( 0.0000,  0.0000,  0.0000)
  13 O      4.634828   11.469731    9.578955    ( 0.0000,  0.0000,  0.0000)
  14 Ti     2.748160   11.461039   10.383932    ( 0.0000,  0.0000,  0.0000)
  15 Ti     7.966417    1.903967   10.382108    ( 0.0000,  0.0000,  0.0000)
  16 Ti     0.512398    1.899277   11.182972    ( 0.0000,  0.0000,  0.0000)
  17 Ti     5.663403   11.452309   11.121006    ( 0.0000,  0.0000,  0.0000)
  18 O      0.904080   11.450002   11.092974    ( 0.0000,  0.0000,  0.0000)
  19 O      6.082024    1.923089   11.072190    ( 0.0000,  0.0000,  0.0000)
  20 O      9.021198    1.954873   11.947104    ( 0.0000,  0.0000,  0.0000)
  21 O      3.865567   11.454281   11.936503    ( 0.0000,  0.0000,  0.0000)
  22 O      7.571394   11.471817   10.448904    ( 0.0000,  0.0000,  0.0000)
  23 O      2.368442    1.908963   10.449867    ( 0.0000,  0.0000,  0.0000)
  24 O      0.911503    1.868496   13.114789    ( 0.0000,  0.0000,  0.0000)
  25 O      6.114310    0.058524   13.060084    ( 0.0000,  0.0000,  0.0000)
  26 Ti     4.201273    0.088044   13.975922    ( 0.0000,  0.0000,  0.0000)
  27 Ti     9.415312    1.948700   14.001305    ( 0.0000,  0.0000,  0.0000)
  28 Ti     1.855041    1.907591   14.736367    ( 0.0000,  0.0000,  0.0000)
  29 Ti     6.992526    0.061117   14.600503    ( 0.0000,  0.0000,  0.0000)
  30 O      2.386185   11.474022   14.748190    ( 0.0000,  0.0000,  0.0000)
  31 O      7.533328    1.973644   14.813879    ( 0.0000,  0.0000,  0.0000)
  32 O      0.174122    1.991358   15.459165    ( 0.0000,  0.0000,  0.0000)
  33 O      5.383296   11.482555   15.443532    ( 0.0000,  0.0000,  0.0000)
  34 O      9.036218    0.064350   13.958348    ( 0.0000,  0.0000,  0.0000)
  35 O      3.885313    1.911265   13.948229    ( 0.0000,  0.0000,  0.0000)
  36 O      8.476572    5.733518    6.000000    ( 0.0000,  0.0000,  0.0000)
  37 O      3.305699    3.822345    6.000000    ( 0.0000,  0.0000,  0.0000)
  38 Ti     1.412752    3.822345    6.752957    ( 0.0000,  0.0000,  0.0000)
  39 Ti     6.583625    5.733518    6.752957    ( 0.0000,  0.0000,  0.0000)
  40 Ti     9.522250    5.733518    7.640878    ( 0.0000,  0.0000,  0.0000)
  41 Ti     4.351376    3.822345    7.640878    ( 0.0000,  0.0000,  0.0000)
  42 O      9.861551    3.822345    7.505914    ( 0.0000,  0.0000,  0.0000)
  43 O      4.690678    5.733518    7.505914    ( 0.0000,  0.0000,  0.0000)
  44 O      7.629303    5.733518    8.393834    ( 0.0000,  0.0000,  0.0000)
  45 O      2.458430    3.822345    8.393834    ( 0.0000,  0.0000,  0.0000)
  46 O      6.244323    3.822345    6.887921    ( 0.0000,  0.0000,  0.0000)
  47 O      1.073450    5.733518    6.887921    ( 0.0000,  0.0000,  0.0000)
  48 O      9.805834    5.728946    9.614725    ( 0.0000,  0.0000,  0.0000)
  49 O      4.636990    3.836199    9.583582    ( 0.0000,  0.0000,  0.0000)
  50 Ti     2.696987    3.856506   10.332250    ( 0.0000,  0.0000,  0.0000)
  51 Ti     8.013627    5.758308   10.368638    ( 0.0000,  0.0000,  0.0000)
  52 Ti     0.493886    5.761695   11.302896    ( 0.0000,  0.0000,  0.0000)
  53 Ti     5.720394    3.818039   11.079865    ( 0.0000,  0.0000,  0.0000)
  54 O      0.906754    3.833365   11.097820    ( 0.0000,  0.0000,  0.0000)
  55 O      6.072775    5.751737   11.102266    ( 0.0000,  0.0000,  0.0000)
  56 O      9.029686    5.795618   11.981520    ( 0.0000,  0.0000,  0.0000)
  57 O      3.835836    3.824320   11.925958    ( 0.0000,  0.0000,  0.0000)
  58 O      7.555307    3.842968   10.448804    ( 0.0000,  0.0000,  0.0000)
  59 O      2.381046    5.740736   10.451921    ( 0.0000,  0.0000,  0.0000)
  60 O      0.895508    5.742366   13.218670    ( 0.0000,  0.0000,  0.0000)
  61 O      6.067411    3.832320   13.100891    ( 0.0000,  0.0000,  0.0000)
  62 Ti     4.069439    3.911519   13.774359    ( 0.0000,  0.0000,  0.0000)
  63 Ti     9.492794    5.740889   14.096265    ( 0.0000,  0.0000,  0.0000)
  64 Ti     1.939401    5.792065   14.967968    ( 0.0000,  0.0000,  0.0000)
  65 Ti     7.057932    3.876648   14.569464    ( 0.0000,  0.0000,  0.0000)
  66 O      2.350145    3.779594   14.605907    ( 0.0000,  0.0000,  0.0000)
  67 O      7.531348    5.733349   14.809440    ( 0.0000,  0.0000,  0.0000)
  68 O      0.215242    5.733914   15.603883    ( 0.0000,  0.0000,  0.0000)
  69 O      5.366851    4.015781   15.606783    ( 0.0000,  0.0000,  0.0000)
  70 O      8.969973    3.871768   13.969105    ( 0.0000,  0.0000,  0.0000)
  71 O      3.839289    5.739776   13.924627    ( 0.0000,  0.0000,  0.0000)
  72 O      8.476572    9.555862    6.000000    ( 0.0000,  0.0000,  0.0000)
  73 O      3.305699    7.644690    6.000000    ( 0.0000,  0.0000,  0.0000)
  74 Ti     1.412752    7.644690    6.752957    ( 0.0000,  0.0000,  0.0000)
  75 Ti     6.583625    9.555862    6.752957    ( 0.0000,  0.0000,  0.0000)
  76 Ti     9.522250    9.555862    7.640878    ( 0.0000,  0.0000,  0.0000)
  77 Ti     4.351376    7.644690    7.640878    ( 0.0000,  0.0000,  0.0000)
  78 O      9.861551    7.644690    7.505914    ( 0.0000,  0.0000,  0.0000)
  79 O      4.690678    9.555862    7.505914    ( 0.0000,  0.0000,  0.0000)
  80 O      7.629303    9.555862    8.393834    ( 0.0000,  0.0000,  0.0000)
  81 O      2.458430    7.644690    8.393834    ( 0.0000,  0.0000,  0.0000)
  82 O      6.244323    7.644690    6.887921    ( 0.0000,  0.0000,  0.0000)
  83 O      1.073450    9.555862    6.887921    ( 0.0000,  0.0000,  0.0000)
  84 O      9.817273    9.542608    9.602870    ( 0.0000,  0.0000,  0.0000)
  85 O      4.640744    7.650622    9.612320    ( 0.0000,  0.0000,  0.0000)
  86 Ti     2.774829    7.653395   10.319156    ( 0.0000,  0.0000,  0.0000)
  87 Ti     7.959710    9.575993   10.388186    ( 0.0000,  0.0000,  0.0000)
  88 Ti     0.484482    9.534796   11.201223    ( 0.0000,  0.0000,  0.0000)
  89 Ti     5.727010    7.617188   11.201547    ( 0.0000,  0.0000,  0.0000)
  90 O      0.903664    7.639696   11.101977    ( 0.0000,  0.0000,  0.0000)
  91 O      6.089806    9.563640   11.091299    ( 0.0000,  0.0000,  0.0000)
  92 O      9.037891    9.555901   11.970960    ( 0.0000,  0.0000,  0.0000)
  93 O      3.847946    7.645115   11.948561    ( 0.0000,  0.0000,  0.0000)
  94 O      7.553994    7.650135   10.456600    ( 0.0000,  0.0000,  0.0000)
  95 O      2.380828    9.541330   10.451629    ( 0.0000,  0.0000,  0.0000)
  96 O      0.934560    9.542850   13.181099    ( 0.0000,  0.0000,  0.0000)
  97 O      6.050491    7.697174   13.232722    ( 0.0000,  0.0000,  0.0000)
  98 Ti     4.179507    7.725739   13.808216    ( 0.0000,  0.0000,  0.0000)
  99 Ti     9.442110    9.690107   14.061608    ( 0.0000,  0.0000,  0.0000)
 100 Ti     1.888276    9.573185   14.764177    ( 0.0000,  0.0000,  0.0000)
 101 Ti     7.237444    7.708689   14.811840    ( 0.0000,  0.0000,  0.0000)
 102 O      2.351934    7.655718   14.804038    ( 0.0000,  0.0000,  0.0000)
 103 O      7.553212    9.665511   14.774401    ( 0.0000,  0.0000,  0.0000)
 104 O      0.210723    9.709275   15.524780    ( 0.0000,  0.0000,  0.0000)
 105 O      5.163396    7.599775   15.570177    ( 0.0000,  0.0000,  0.0000)
 106 O      9.006735    7.680690   14.140650    ( 0.0000,  0.0000,  0.0000)
 107 O      3.837273    9.549244   13.959894    ( 0.0000,  0.0000,  0.0000)
 108 V      5.734486    7.568012   17.208269    ( 0.0000,  0.0000,  0.0000)
 109 V      4.457046    4.691625   17.049889    ( 0.0000,  0.0000,  0.0000)
 110 O      7.396575    7.829549   16.754737    ( 0.0000,  0.0000,  0.0000)
 111 O      4.101830    3.461489   18.054118    ( 0.0000,  0.0000,  0.0000)
 112 O      5.455454    5.899156   17.872724    ( 0.0000,  0.0000,  0.0000)
 113 O      4.990151    8.741950   18.064646    ( 0.0000,  0.0000,  0.0000)
 114 O      2.992521    5.478254   16.557459    ( 0.0000,  0.0000,  0.0000)

Unit cell:
           periodic     x           y           z      points  spacing
  1. axis:    yes   10.341746    0.000000    0.000000    54     0.1915
  2. axis:    yes   -0.000000   11.467000    0.000000    60     0.1911
  3. axis:    no     0.000000    0.000000   23.497201   125     0.1880

  Lengths:  10.341746  11.467000  23.497201
  Angles:   90.000000  90.000000  90.000000

Effective grid spacing dv^(1/3) = 0.1902

                     log10-error:    total        iterations:
           time      wfs    density  energy       fermi  poisson
iter:   1  21:09:50  -0.12   +inf  -1092.637268    1             
iter:   2  21:10:44  -1.02  -0.96  -1045.251844    2             
iter:   3  21:11:39  +0.45  -1.01  -950.262269    6             
iter:   4  21:12:34  -0.99  -1.35  -964.140685    3             
iter:   5  21:13:29  -1.14  -1.28  -980.491050    2             
iter:   6  21:14:24  -0.12  -1.25  -970.217878    5             
iter:   7  21:15:19  -0.62  -1.65  -969.274329    4             
iter:   8  21:16:14  -1.64  -1.63  -961.278105    2             
iter:   9  21:17:09  -0.97  -1.72  -955.630363    3             
iter:  10  21:18:04  -1.92  -2.13  -956.600884    3             
iter:  11  21:18:58  -2.66  -2.07  -956.324085    2             
iter:  12  21:19:53  -1.76  -2.14  -955.519902    3             
iter:  13  21:20:48  -2.44  -2.29  -955.523550    3             
iter:  14  21:21:43  -2.93  -2.34  -955.470790    3             
iter:  15  21:22:38  -2.52  -2.37  -955.450738    3             
iter:  16  21:23:32  -3.12  -2.56  -955.438308    2             
iter:  17  21:24:27  -4.00  -2.86  -955.435498    2             
iter:  18  21:25:22  -3.30  -2.89  -955.434494    2             
iter:  19  21:26:17  -4.20  -3.08  -955.428005    2             
iter:  20  21:27:12  -3.86  -3.20  -955.433642    2             
iter:  21  21:28:07  -4.71  -3.14  -955.426950    2             
iter:  22  21:29:01  -4.15  -3.32  -955.424910    2             
iter:  23  21:29:56  -5.15  -3.63  -955.424880    2             
iter:  24  21:30:51  -5.19  -3.68  -955.424542    2             
iter:  25  21:31:46  -5.36  -3.94  -955.424550    1             
iter:  26  21:32:41  -6.08  -4.06  -955.424453    1             
iter:  27  21:33:35  -6.03  -4.11  -955.424471    1             
iter:  28  21:34:30  -6.61  -4.29  -955.424462    1             
iter:  29  21:35:25  -6.74  -4.34  -955.424453    1             
iter:  30  21:36:20  -6.96  -4.39  -955.424462    1             
iter:  31  21:37:15  -7.94  -4.56  -955.424460    1             

Converged after 31 iterations.

Dipole moment: (-16.075235, -20.609554, -1.763607) |e|*Ang

Energy contributions relative to reference atoms: (reference = -1044851.132452)

Kinetic:       +671.072725
Potential:     -863.204730
External:        +0.000000
XC:            -771.076513
Entropy (-ST):   -0.000651
Local:           +7.784384
--------------------------
Free energy:   -955.424786
Extrapolated:  -955.424460

Fermi level: -0.80446

Showing only first 2 kpts
 Kpt  Band  Eigenvalues  Occupancy
  0   458     -1.87746    0.22222
  0   459     -1.85219    0.22222
  0   460      0.02175    0.00006
  0   461      0.16800    0.00001

  1   458     -1.86619    0.44443
  1   459     -1.85534    0.44443
  1   460      0.21768    0.00002
  1   461      0.29293    0.00001



Forces in eV/Ang:
  0 O    -1.87752    0.00117    1.57611
  1 O    -1.93604    0.00077    1.56881
  2 Ti    3.83392    0.00262    1.91824
  3 Ti    3.85311   -0.02365    1.93537
  4 Ti   -1.93320   -0.03006   -1.89727
  5 Ti   -1.85657    0.00328   -2.03922
  6 O     0.89156   -0.03343   -0.18647
  7 O     0.84981    0.06598   -0.18328
  8 O    -0.61111    0.03532   -0.60073
  9 O    -0.68440   -0.01718   -0.56799
 10 O    -0.28294   -0.00138   -0.85000
 11 O    -0.22904    0.09981   -0.89540
 12 O    -0.08198    0.00234    0.19475
 13 O    -0.19161    0.00088    0.02913
 14 Ti    0.10346   -0.01338   -0.19572
 15 Ti   -0.15030    0.05367   -0.21884
 16 Ti   -0.04449    0.06659   -0.40009
 17 Ti    0.11004    0.02255    0.05523
 18 O     0.10028    0.06143    0.02630
 19 O     0.21188   -0.07766   -0.12867
 20 O     0.18760   -0.00956    0.29326
 21 O    -0.03456    0.02400    0.11056
 22 O     0.03851    0.02064    0.09365
 23 O    -0.07733   -0.00664    0.14436
 24 O     0.47064    0.00250    0.91752
 25 O    -0.21127    0.03837   -0.07520
 26 Ti    0.66074   -0.36797   -0.08920
 27 Ti   -0.70148    0.13820   -0.36606
 28 Ti   -0.54243    0.30919   -1.83419
 29 Ti    0.11271   -0.06057    0.21231
 30 O    -0.13486    0.33119    0.75145
 31 O     0.22042   -0.12339    0.04096
 32 O     0.83978   -0.08648    0.68868
 33 O    -0.08219    0.06732   -0.22723
 34 O    -0.08902    0.16265    0.15398
 35 O    -0.43327    0.06811    0.44784
 36 O    -1.85314   -0.00165    1.57439
 37 O    -1.98122    0.00802    1.62047
 38 Ti    3.59050   -0.05333    1.67577
 39 Ti    3.88659    0.00986    1.96089
 40 Ti   -1.93848   -0.00604   -1.59648
 41 Ti   -1.54902   -0.03581   -2.01593
 42 O     0.95139    0.00894   -0.19990
 43 O     0.82083    0.02364   -0.19326
 44 O    -0.67743    0.03813   -0.69939
 45 O    -0.71413    0.00142   -0.60600
 46 O    -0.33054    0.00783   -0.86894
 47 O    -0.20453    0.00043   -0.86888
 48 O    -0.03489    0.00476    0.08300
 49 O    -0.21135    0.00442   -0.01279
 50 Ti    0.17810    0.01648   -0.08239
 51 Ti   -0.11618   -0.00861   -0.04998
 52 Ti    0.07895   -0.00519   -0.01350
 53 Ti   -0.04135    0.09078    0.23245
 54 O     0.05663   -0.08375    0.02001
 55 O     0.21467   -0.10001   -0.06244
 56 O    -0.00759   -0.01763    0.17805
 57 O    -0.00882   -0.04762   -0.17283
 58 O     0.10907   -0.06061    0.05792
 59 O    -0.04310    0.01551    0.16772
 60 O     0.10494   -0.00463   -0.24794
 61 O    -0.14581   -0.02569   -0.05167
 62 Ti    0.57863    0.27914    0.16352
 63 Ti   -0.28814    0.19400    0.07045
 64 Ti    0.36472   -0.21382    0.55468
 65 Ti   -0.34021    0.20032    0.35960
 66 O    -0.29872   -0.46247    0.50923
 67 O     0.18175   -0.04990   -0.03625
 68 O    -0.09019   -0.03249   -0.22131
 69 O     0.25435   -0.33410   -0.85623
 70 O     0.00512   -0.27738    0.13615
 71 O    -0.29215    0.01975   -0.11332
 72 O    -1.84697   -0.00838    1.59576
 73 O    -1.94055   -0.00442    1.62352
 74 Ti    3.61893    0.05227    1.70682
 75 Ti    3.83461    0.02134    1.95730
 76 Ti   -1.95716    0.02935   -1.85258
 77 Ti   -1.50023    0.02787   -1.72052
 78 O     0.94962   -0.01329   -0.20576
 79 O     0.84932   -0.06115   -0.19295
 80 O    -0.57440    0.00942   -0.52878
 81 O    -0.67911   -0.01310   -0.62979
 82 O    -0.33607   -0.00636   -0.85045
 83 O    -0.23632   -0.10218   -0.90162
 84 O    -0.10658    0.01562    0.13522
 85 O    -0.14394    0.00805   -0.02261
 86 Ti    0.04117   -0.03729    0.01315
 87 Ti   -0.08117   -0.06079   -0.16657
 88 Ti    0.04319   -0.07634   -0.23448
 89 Ti   -0.02086    0.04247    0.24734
 90 O     0.16448    0.09110   -0.00719
 91 O     0.20631    0.03193   -0.08824
 92 O     0.12732    0.03187    0.27993
 93 O    -0.04178    0.01669   -0.12462
 94 O     0.07566    0.05748    0.09114
 95 O    -0.05256    0.07315    0.15145
 96 O     0.25701    0.05949    0.22977
 97 O    -0.09041    0.03416   -0.43255
 98 Ti    0.36923   -0.37765    0.55466
 99 Ti   -0.50747   -0.35231   -0.12260
100 Ti   -0.63627   -0.56452   -1.42022
101 Ti   -0.41396   -0.10940    0.73672
102 O    -0.06427    0.72427    0.22767
103 O     0.23371    0.17141   -0.22290
104 O     0.52770   -0.03259    0.39343
105 O    -0.07731   -0.05818   -0.92070
106 O     0.19909    0.13962   -0.18508
107 O    -0.47242    0.41765    0.33156
108 V    -0.87096    0.89983    1.31634
109 V    -0.16467   -0.97329    1.26624
110 O     0.32294    0.03184   -0.49412
111 O     0.25912    0.89627   -0.78768
112 O     0.06478   -0.05657    0.16739
113 O     0.81339   -0.84168   -0.51016
114 O    -0.66544    0.18980   -0.46390

System changes: positions 

Initializing position-dependent things.

Density initialized from wave functions
                                                
                                                
                                                
                                                
                                                
                                                
                         O                      
                          V O                   
              O     O   O     O                 
                  TO V   O      O               
                  O   O       Ti     Ti         
           O   Ti     TiO         O             
                O      O   OTO    Ti            
         O     O    OTi    Ti    O O            
             Tii   TiO    OOO   O               
              O   OO    TiTi   TiOi             
          O Ti   TiOi     O  O O     O          
            O   O     OTi     TiO               
                TiO      O  O O    O Ti         
         Ti   O O    O Oi    Ti     O           
               Ti          OTi    Ti            
             O O    O O         O               
                    Ti     Oi     O             
             Oi     O    O      Ti              
           O     OTi    Ti     O                
          Ti          O      O                  
               O                                
                                                
                                                
                                                
                                                

Positions:
   0 O      8.476572    1.911173    6.000000    ( 0.0000,  0.0000,  0.0000)
   1 O      3.305699    0.000000    6.000000    ( 0.0000,  0.0000,  0.0000)
   2 Ti     1.412752    0.000000    6.752957    ( 0.0000,  0.0000,  0.0000)
   3 Ti     6.583625    1.911173    6.752957    ( 0.0000,  0.0000,  0.0000)
   4 Ti     9.522250    1.911173    7.640878    ( 0.0000,  0.0000,  0.0000)
   5 Ti     4.351376    0.000000    7.640878    ( 0.0000,  0.0000,  0.0000)
   6 O      9.861551    0.000000    7.505914    ( 0.0000,  0.0000,  0.0000)
   7 O      4.690678    1.911173    7.505914    ( 0.0000,  0.0000,  0.0000)
   8 O      7.629303    1.911173    8.393834    ( 0.0000,  0.0000,  0.0000)
   9 O      2.458430    0.000000    8.393834    ( 0.0000,  0.0000,  0.0000)
  10 O      6.244323    0.000000    6.887921    ( 0.0000,  0.0000,  0.0000)
  11 O      1.073450    1.911173    6.887921    ( 0.0000,  0.0000,  0.0000)
  12 O      9.816105    1.901030    9.595244    ( 0.0000,  0.0000,  0.0000)
  13 O      4.632091   11.469744    9.579371    ( 0.0000,  0.0000,  0.0000)
  14 Ti     2.749638   11.460847   10.381136    ( 0.0000,  0.0000,  0.0000)
  15 Ti     7.964270    1.904734   10.378981    ( 0.0000,  0.0000,  0.0000)
  16 Ti     0.511762    1.900228   11.177256    ( 0.0000,  0.0000,  0.0000)
  17 Ti     5.664975   11.452631   11.121795    ( 0.0000,  0.0000,  0.0000)
  18 O      0.905513   11.450879   11.093350    ( 0.0000,  0.0000,  0.0000)
  19 O      6.085051    1.921979   11.070352    ( 0.0000,  0.0000,  0.0000)
  20 O      9.023878    1.954736   11.951294    ( 0.0000,  0.0000,  0.0000)
  21 O      3.865073   11.454623   11.938082    ( 0.0000,  0.0000,  0.0000)
  22 O      7.571944   11.472111   10.450242    ( 0.0000,  0.0000,  0.0000)
  23 O      2.367337    1.908868   10.451930    ( 0.0000,  0.0000,  0.0000)
  24 O      0.918226    1.868532   13.127896    ( 0.0000,  0.0000,  0.0000)
  25 O      6.111292    0.059072   13.059010    ( 0.0000,  0.0000,  0.0000)
  26 Ti     4.210712    0.082787   13.974648    ( 0.0000,  0.0000,  0.0000)
  27 Ti     9.405291    1.950674   13.996076    ( 0.0000,  0.0000,  0.0000)
  28 Ti     1.847292    1.912007   14.710164    ( 0.0000,  0.0000,  0.0000)
  29 Ti     6.994136    0.060252   14.603536    ( 0.0000,  0.0000,  0.0000)
  30 O      2.384258   11.478753   14.758925    ( 0.0000,  0.0000,  0.0000)
  31 O      7.536476    1.971881   14.814464    ( 0.0000,  0.0000,  0.0000)
  32 O      0.186119    1.990123   15.469004    ( 0.0000,  0.0000,  0.0000)
  33 O      5.382122   11.483516   15.440286    ( 0.0000,  0.0000,  0.0000)
  34 O      9.034947    0.066674   13.960548    ( 0.0000,  0.0000,  0.0000)
  35 O      3.879123    1.912238   13.954627    ( 0.0000,  0.0000,  0.0000)
  36 O      8.476572    5.733518    6.000000    ( 0.0000,  0.0000,  0.0000)
  37 O      3.305699    3.822345    6.000000    ( 0.0000,  0.0000,  0.0000)
  38 Ti     1.412752    3.822345    6.752957    ( 0.0000,  0.0000,  0.0000)
  39 Ti     6.583625    5.733518    6.752957    ( 0.0000,  0.0000,  0.0000)
  40 Ti     9.522250    5.733518    7.640878    ( 0.0000,  0.0000,  0.0000)
  41 Ti     4.351376    3.822345    7.640878    ( 0.0000,  0.0000,  0.0000)
  42 O      9.861551    3.822345    7.505914    ( 0.0000,  0.0000,  0.0000)
  43 O      4.690678    5.733518    7.505914    ( 0.0000,  0.0000,  0.0000)
  44 O      7.629303    5.733518    8.393834    ( 0.0000,  0.0000,  0.0000)
  45 O      2.458430    3.822345    8.393834    ( 0.0000,  0.0000,  0.0000)
  46 O      6.244323    3.822345    6.887921    ( 0.0000,  0.0000,  0.0000)
  47 O      1.073450    5.733518    6.887921    ( 0.0000,  0.0000,  0.0000)
  48 O      9.805336    5.729014    9.615911    ( 0.0000,  0.0000,  0.0000)
  49 O      4.633971    3.836262    9.583399    ( 0.0000,  0.0000,  0.0000)
  50 Ti     2.699531    3.856741   10.331073    ( 0.0000,  0.0000,  0.0000)
  51 Ti     8.011968    5.758185   10.367924    ( 0.0000,  0.0000,  0.0000)
  52 Ti     0.495014    5.761621   11.302703    ( 0.0000,  0.0000,  0.0000)
  53 Ti     5.719804    3.819336   11.083186    ( 0.0000,  0.0000,  0.0000)
  54 O      0.907563    3.832168   11.098106    ( 0.0000,  0.0000,  0.0000)
  55 O      6.075842    5.750308   11.101374    ( 0.0000,  0.0000,  0.0000)
  56 O      9.029578    5.795366   11.984064    ( 0.0000,  0.0000,  0.0000)
  57 O      3.835710    3.823640   11.923489    ( 0.0000,  0.0000,  0.0000)
  58 O      7.556865    3.842102   10.449632    ( 0.0000,  0.0000,  0.0000)
  59 O      2.380430    5.740957   10.454317    ( 0.0000,  0.0000,  0.0000)
  60 O      0.897007    5.742300   13.215128    ( 0.0000,  0.0000,  0.0000)
  61 O      6.065328    3.831953   13.100153    ( 0.0000,  0.0000,  0.0000)
  62 Ti     4.077705    3.915506   13.776695    ( 0.0000,  0.0000,  0.0000)
  63 Ti     9.488677    5.743660   14.097272    ( 0.0000,  0.0000,  0.0000)
  64 Ti     1.944612    5.789011   14.975892    ( 0.0000,  0.0000,  0.0000)
  65 Ti     7.053072    3.879510   14.574601    ( 0.0000,  0.0000,  0.0000)
  66 O      2.345878    3.772988   14.613182    ( 0.0000,  0.0000,  0.0000)
  67 O      7.533944    5.732636   14.808922    ( 0.0000,  0.0000,  0.0000)
  68 O      0.213954    5.733450   15.600722    ( 0.0000,  0.0000,  0.0000)
  69 O      5.370485    4.011008   15.594551    ( 0.0000,  0.0000,  0.0000)
  70 O      8.970046    3.867805   13.971050    ( 0.0000,  0.0000,  0.0000)
  71 O      3.835115    5.740058   13.923008    ( 0.0000,  0.0000,  0.0000)
  72 O      8.476572    9.555862    6.000000    ( 0.0000,  0.0000,  0.0000)
  73 O      3.305699    7.644690    6.000000    ( 0.0000,  0.0000,  0.0000)
  74 Ti     1.412752    7.644690    6.752957    ( 0.0000,  0.0000,  0.0000)
  75 Ti     6.583625    9.555862    6.752957    ( 0.0000,  0.0000,  0.0000)
  76 Ti     9.522250    9.555862    7.640878    ( 0.0000,  0.0000,  0.0000)
  77 Ti     4.351376    7.644690    7.640878    ( 0.0000,  0.0000,  0.0000)
  78 O      9.861551    7.644690    7.505914    ( 0.0000,  0.0000,  0.0000)
  79 O      4.690678    9.555862    7.505914    ( 0.0000,  0.0000,  0.0000)
  80 O      7.629303    9.555862    8.393834    ( 0.0000,  0.0000,  0.0000)
  81 O      2.458430    7.644690    8.393834    ( 0.0000,  0.0000,  0.0000)
  82 O      6.244323    7.644690    6.887921    ( 0.0000,  0.0000,  0.0000)
  83 O      1.073450    9.555862    6.887921    ( 0.0000,  0.0000,  0.0000)
  84 O      9.815750    9.542831    9.604802    ( 0.0000,  0.0000,  0.0000)
  85 O      4.638687    7.650737    9.611997    ( 0.0000,  0.0000,  0.0000)
  86 Ti     2.775417    7.652862   10.319344    ( 0.0000,  0.0000,  0.0000)
  87 Ti     7.958551    9.575124   10.385806    ( 0.0000,  0.0000,  0.0000)
  88 Ti     0.485099    9.533706   11.197873    ( 0.0000,  0.0000,  0.0000)
  89 Ti     5.726712    7.617794   11.205080    ( 0.0000,  0.0000,  0.0000)
  90 O      0.906014    7.640997   11.101874    ( 0.0000,  0.0000,  0.0000)
  91 O      6.092754    9.564097   11.090038    ( 0.0000,  0.0000,  0.0000)
  92 O      9.039710    9.556356   11.974959    ( 0.0000,  0.0000,  0.0000)
  93 O      3.847350    7.645353   11.946780    ( 0.0000,  0.0000,  0.0000)
  94 O      7.555075    7.650957   10.457902    ( 0.0000,  0.0000,  0.0000)
  95 O      2.380077    9.542375   10.453792    ( 0.0000,  0.0000,  0.0000)
  96 O      0.938232    9.543700   13.184381    ( 0.0000,  0.0000,  0.0000)
  97 O      6.049200    7.697662   13.226543    ( 0.0000,  0.0000,  0.0000)
  98 Ti     4.184782    7.720344   13.816139    ( 0.0000,  0.0000,  0.0000)
  99 Ti     9.434861    9.685074   14.059857    ( 0.0000,  0.0000,  0.0000)
 100 Ti     1.879186    9.565120   14.743888    ( 0.0000,  0.0000,  0.0000)
 101 Ti     7.231530    7.707126   14.822365    ( 0.0000,  0.0000,  0.0000)
 102 O      2.351016    7.666064   14.807291    ( 0.0000,  0.0000,  0.0000)
 103 O      7.556551    9.667960   14.771217    ( 0.0000,  0.0000,  0.0000)
 104 O      0.218262    9.708810   15.530400    ( 0.0000,  0.0000,  0.0000)
 105 O      5.162292    7.598944   15.557025    ( 0.0000,  0.0000,  0.0000)
 106 O      9.009579    7.682685   14.138006    ( 0.0000,  0.0000,  0.0000)
 107 O      3.830524    9.555210   13.964631    ( 0.0000,  0.0000,  0.0000)
 108 V      5.722044    7.580867   17.227074    ( 0.0000,  0.0000,  0.0000)
 109 V      4.454694    4.677721   17.067978    ( 0.0000,  0.0000,  0.0000)
 110 O      7.401188    7.830004   16.747678    ( 0.0000,  0.0000,  0.0000)
 111 O      4.105531    3.474293   18.042865    ( 0.0000,  0.0000,  0.0000)
 112 O      5.456379    5.898347   17.875116    ( 0.0000,  0.0000,  0.0000)
 113 O      5.001771    8.729926   18.057358    ( 0.0000,  0.0000,  0.0000)
 114 O      2.983014    5.480966   16.550831    ( 0.0000,  0.0000,  0.0000)

Unit cell:
           periodic     x           y           z      points  spacing
  1. axis:    yes   10.341746    0.000000    0.000000    54     0.1915
  2. axis:    yes   -0.000000   11.467000    0.000000    60     0.1911
  3. axis:    no     0.000000    0.000000   23.497201   125     0.1880

  Lengths:  10.341746  11.467000  23.497201
  Angles:   90.000000  90.000000  90.000000

Effective grid spacing dv^(1/3) = 0.1902

                     log10-error:    total        iterations:
           time      wfs    density  energy       fermi  poisson
iter:   1  21:38:30  -2.01   +inf  -955.884792    3             
iter:   2  21:39:24  -2.86  -2.86  -955.849553    2             
iter:   3  21:40:19  -2.23  -2.88  -955.748229    3             
iter:   4  21:41:14  -3.70  -3.05  -955.731255    2             
iter:   5  21:42:08  -4.45  -3.11  -955.731544    1             
iter:   6  21:43:03  -3.46  -3.12  -955.734038    2             
iter:   7  21:43:58  -3.68  -3.12  -955.719259    3             
iter:   8  21:44:53  -4.04  -3.29  -955.718014    2             
iter:   9  21:45:47  -4.19  -3.34  -955.711759    2             
iter:  10  21:46:42  -3.94  -3.50  -955.711748    1             
iter:  11  21:47:37  -4.92  -3.71  -955.710954    2             
iter:  12  21:48:31  -4.78  -3.77  -955.710960    2             
iter:  13  21:49:26  -5.10  -3.96  -955.710508    1             
iter:  14  21:50:21  -4.85  -4.11  -955.710934    1             
iter:  15  21:51:15  -5.06  -4.10  -955.710427    1             
iter:  16  21:52:10  -5.95  -4.35  -955.710439    1             
iter:  17  21:53:05  -5.96  -4.39  -955.710444    2             
iter:  18  21:53:59  -7.06  -4.51  -955.710429    1             
iter:  19  21:54:54  -6.23  -4.61  -955.710436    1             
iter:  20  21:55:49  -7.25  -4.68  -955.710427    1             
iter:  21  21:56:43  -7.43  -4.76  -955.710426    1             

Converged after 21 iterations.

Dipole moment: (-16.514261, -21.221939, -1.540694) |e|*Ang

Energy contributions relative to reference atoms: (reference = -1044851.132452)

Kinetic:       +674.913539
Potential:     -866.424488
External:        +0.000000
XC:            -771.902976
Entropy (-ST):   -0.000517
Local:           +7.703757
--------------------------
Free energy:   -955.710685
Extrapolated:  -955.710426

Fermi level: -0.78356

Showing only first 2 kpts
 Kpt  Band  Eigenvalues  Occupancy
  0   458     -1.85628    0.22222
  0   459     -1.85032    0.22222
  0   460      0.06541    0.00005
  0   461      0.20830    0.00001

  1   458     -1.86439    0.44444
  1   459     -1.84138    0.44443
  1   460      0.25871    0.00001
  1   461      0.34235    0.00001



Forces in eV/Ang:
  0 O    -1.87147    0.00032    1.57188
  1 O    -1.94091    0.00154    1.55186
  2 Ti    3.84545   -0.00247    1.92515
  3 Ti    3.82806   -0.01885    1.93299
  4 Ti   -1.91797   -0.02361   -1.89879
  5 Ti   -1.85397   -0.00193   -2.00850
  6 O     0.88605   -0.02527   -0.17938
  7 O     0.86073    0.06216   -0.18833
  8 O    -0.60560    0.03374   -0.59793
  9 O    -0.70157   -0.01540   -0.60429
 10 O    -0.27500    0.00464   -0.85285
 11 O    -0.23630    0.09485   -0.90081
 12 O    -0.08171    0.00217    0.10224
 13 O    -0.14983    0.00209    0.00411
 14 Ti    0.10540   -0.01504   -0.07410
 15 Ti   -0.12810    0.05007   -0.11650
 16 Ti    0.00006    0.05264   -0.20739
 17 Ti    0.03874    0.01917    0.08168
 18 O     0.07721    0.06123    0.02449
 19 O     0.18908   -0.03942   -0.11930
 20 O     0.16380   -0.01008    0.21445
 21 O    -0.00692    0.02103    0.00832
 22 O     0.05575    0.02230    0.07667
 23 O    -0.05647    0.00414    0.11760
 24 O     0.14901    0.00658    0.17269
 25 O    -0.10251    0.03114    0.00151
 26 Ti    0.13824   -0.22417   -0.02501
 27 Ti   -0.28456    0.10562    0.06171
 28 Ti   -0.30634    0.00357   -1.23855
 29 Ti    0.12000   -0.00795    0.08709
 30 O     0.01722    0.17306    0.61426
 31 O     0.11666   -0.07481    0.07317
 32 O     0.41365   -0.06535    0.35410
 33 O     0.07340    0.03743   -0.06321
 34 O    -0.11967    0.07520    0.13585
 35 O    -0.26063    0.08748    0.33624
 36 O    -1.85565   -0.00249    1.55812
 37 O    -1.98555    0.00652    1.60169
 38 Ti    3.60492   -0.04254    1.69030
 39 Ti    3.88283    0.01496    1.97151
 40 Ti   -1.92782   -0.00054   -1.55117
 41 Ti   -1.55361   -0.02655   -1.99017
 42 O     0.94616   -0.00845   -0.19616
 43 O     0.82747    0.01816   -0.19872
 44 O    -0.68646    0.03673   -0.71454
 45 O    -0.72933   -0.00036   -0.64988
 46 O    -0.32227   -0.00457   -0.87211
 47 O    -0.20570   -0.00484   -0.87747
 48 O    -0.05377    0.00491    0.02179
 49 O    -0.15145    0.00190   -0.00319
 50 Ti    0.14341    0.01640   -0.01978
 51 Ti   -0.04640   -0.00029    0.02182
 52 Ti    0.08601   -0.01777    0.10573
 53 Ti   -0.07344    0.07739    0.17555
 54 O     0.05152   -0.08836    0.00723
 55 O     0.18785   -0.09389   -0.05506
 56 O    -0.04724   -0.01946    0.11304
 57 O     0.04321   -0.03136   -0.10892
 58 O     0.09463   -0.06649    0.05658
 59 O    -0.02812    0.00158    0.14252
 60 O     0.05603    0.00292   -0.21438
 61 O    -0.09561   -0.00904   -0.01977
 62 Ti    0.28019   -0.01279    0.18744
 63 Ti   -0.11695    0.14031   -0.02411
 64 Ti    0.18015   -0.17297    0.32714
 65 Ti   -0.18492    0.09798    0.21999
 66 O    -0.04379   -0.05455    0.39534
 67 O     0.11416   -0.00296   -0.00083
 68 O    -0.07720   -0.01968   -0.18375
 69 O     0.02211   -0.19821   -0.37227
 70 O    -0.06673   -0.16072    0.14741
 71 O    -0.26632    0.07571   -0.08004
 72 O    -1.84452   -0.00660    1.58605
 73 O    -1.94607   -0.00375    1.60197
 74 Ti    3.63837    0.04650    1.72732
 75 Ti    3.81851    0.01141    1.96139
 76 Ti   -1.94470    0.01695   -1.83737
 77 Ti   -1.50829    0.02410   -1.67831
 78 O     0.94413   -0.00338   -0.20391
 79 O     0.85860   -0.05150   -0.19899
 80 O    -0.57739    0.01221   -0.53721
 81 O    -0.69538   -0.01170   -0.67240
 82 O    -0.32629   -0.00005   -0.86151
 83 O    -0.24106   -0.09189   -0.90190
 84 O    -0.10699    0.01582    0.06159
 85 O    -0.10048    0.00673   -0.03951
 86 Ti    0.05314   -0.03340    0.07882
 87 Ti   -0.05111   -0.06473   -0.07938
 88 Ti    0.05671   -0.05111   -0.13899
 89 Ti   -0.06915    0.05875    0.22770
 90 O     0.13689    0.09427   -0.01388
 91 O     0.17750    0.01969   -0.08280
 92 O     0.10657    0.03089    0.21616
 93 O    -0.00100    0.01281   -0.05876
 94 O     0.07339    0.04682    0.07922
 95 O    -0.03872    0.06843    0.12743
 96 O     0.01757    0.02698   -0.19690
 97 O    -0.02659    0.02495   -0.35385
 98 Ti    0.14224   -0.11411    0.38759
 99 Ti   -0.25503   -0.24356    0.06843
100 Ti   -0.35306   -0.16389   -0.98631
101 Ti   -0.28481   -0.09572    0.53484
102 O    -0.00854    0.36839    0.20973
103 O     0.13806    0.08032   -0.16718
104 O     0.22234   -0.06354    0.18781
105 O     0.16771   -0.03319   -0.18073
106 O     0.03479    0.11133   -0.10674
107 O    -0.29646    0.20091    0.23901
108 V     0.19985   -0.47911   -0.34614
109 V     0.00181    0.44587   -0.28991
110 O    -0.12976    0.03093   -0.21913
111 O    -0.04954   -0.25334    0.23134
112 O    -0.01366   -0.00534    0.21828
113 O     0.05256    0.32964    0.39088
114 O    -0.18066   -0.05687   -0.06074

System changes: positions 

Initializing position-dependent things.

Density initialized from wave functions
                                                
                                                
                                                
                                                
                                                
                                                
                         O                      
                          V O                   
              O     O   O     O                 
                  TO V   O      O               
                  O   O       Ti    Ti          
           O   Ti     TiO         O             
                O      O   OTO    Ti            
         O     O    OTi    Ti    O O            
             Tii   TiO    OOO   O               
              O   OO    TiTi   TiOi             
          O Ti   TiOi     O  O O     O          
            O   O     OTi     TiO               
                TiO      O  O  O   O Ti         
         Ti   O O    O Oi    Ti     O           
               Ti          OTi    Ti            
             O O    O O         O               
                    Ti     Oi     O             
             Oi     O    O      Ti              
           O     OTi    Ti     O                
          Ti          O      O                  
               O                                
                                                
                                                
                                                
                                                

Positions:
   0 O      8.476572    1.911173    6.000000    ( 0.0000,  0.0000,  0.0000)
   1 O      3.305699    0.000000    6.000000    ( 0.0000,  0.0000,  0.0000)
   2 Ti     1.412752    0.000000    6.752957    ( 0.0000,  0.0000,  0.0000)
   3 Ti     6.583625    1.911173    6.752957    ( 0.0000,  0.0000,  0.0000)
   4 Ti     9.522250    1.911173    7.640878    ( 0.0000,  0.0000,  0.0000)
   5 Ti     4.351376    0.000000    7.640878    ( 0.0000,  0.0000,  0.0000)
   6 O      9.861551    0.000000    7.505914    ( 0.0000,  0.0000,  0.0000)
   7 O      4.690678    1.911173    7.505914    ( 0.0000,  0.0000,  0.0000)
   8 O      7.629303    1.911173    8.393834    ( 0.0000,  0.0000,  0.0000)
   9 O      2.458430    0.000000    8.393834    ( 0.0000,  0.0000,  0.0000)
  10 O      6.244323    0.000000    6.887921    ( 0.0000,  0.0000,  0.0000)
  11 O      1.073450    1.911173    6.887921    ( 0.0000,  0.0000,  0.0000)
  12 O      9.814029    1.901086    9.598343    ( 0.0000,  0.0000,  0.0000)
  13 O      4.628061   11.469790    9.579611    ( 0.0000,  0.0000,  0.0000)
  14 Ti     2.752303   11.460475   10.378594    ( 0.0000,  0.0000,  0.0000)
  15 Ti     7.960897    1.906025   10.375468    ( 0.0000,  0.0000,  0.0000)
  16 Ti     0.511521    1.901641   11.170944    ( 0.0000,  0.0000,  0.0000)
  17 Ti     5.666346   11.453136   11.123725    ( 0.0000,  0.0000,  0.0000)
  18 O      0.907599   11.452435   11.093982    ( 0.0000,  0.0000,  0.0000)
  19 O      6.089975    1.920771   11.067272    ( 0.0000,  0.0000,  0.0000)
  20 O      9.028165    1.954483   11.957166    ( 0.0000,  0.0000,  0.0000)
  21 O      3.864748   11.455174   11.938849    ( 0.0000,  0.0000,  0.0000)
  22 O      7.573266   11.472669   10.452280    ( 0.0000,  0.0000,  0.0000)
  23 O      2.365790    1.908914   10.455061    ( 0.0000,  0.0000,  0.0000)
  24 O      0.923757    1.868677   13.136328    ( 0.0000,  0.0000,  0.0000)
  25 O      6.108098    0.059902   13.058631    ( 0.0000,  0.0000,  0.0000)
  26 Ti     4.217061    0.076314   13.973664    ( 0.0000,  0.0000,  0.0000)
  27 Ti     9.395801    1.953533   13.995318    ( 0.0000,  0.0000,  0.0000)
  28 Ti     1.838232    1.913759   14.675484    ( 0.0000,  0.0000,  0.0000)
  29 Ti     6.997143    0.059764   14.606428    ( 0.0000,  0.0000,  0.0000)
  30 O      2.383869   11.484006   14.775264    ( 0.0000,  0.0000,  0.0000)
  31 O      7.540002    1.969718   14.816147    ( 0.0000,  0.0000,  0.0000)
  32 O      0.198936    1.988349   15.479811    ( 0.0000,  0.0000,  0.0000)
  33 O      5.383140   11.484629   15.437790    ( 0.0000,  0.0000,  0.0000)
  34 O      9.032075    0.069058   13.964095    ( 0.0000,  0.0000,  0.0000)
  35 O      3.871569    1.914353   13.963770    ( 0.0000,  0.0000,  0.0000)
  36 O      8.476572    5.733518    6.000000    ( 0.0000,  0.0000,  0.0000)
  37 O      3.305699    3.822345    6.000000    ( 0.0000,  0.0000,  0.0000)
  38 Ti     1.412752    3.822345    6.752957    ( 0.0000,  0.0000,  0.0000)
  39 Ti     6.583625    5.733518    6.752957    ( 0.0000,  0.0000,  0.0000)
  40 Ti     9.522250    5.733518    7.640878    ( 0.0000,  0.0000,  0.0000)
  41 Ti     4.351376    3.822345    7.640878    ( 0.0000,  0.0000,  0.0000)
  42 O      9.861551    3.822345    7.505914    ( 0.0000,  0.0000,  0.0000)
  43 O      4.690678    5.733518    7.505914    ( 0.0000,  0.0000,  0.0000)
  44 O      7.629303    5.733518    8.393834    ( 0.0000,  0.0000,  0.0000)
  45 O      2.458430    3.822345    8.393834    ( 0.0000,  0.0000,  0.0000)
  46 O      6.244323    3.822345    6.887921    ( 0.0000,  0.0000,  0.0000)
  47 O      1.073450    5.733518    6.887921    ( 0.0000,  0.0000,  0.0000)
  48 O      9.804073    5.729138    9.616796    ( 0.0000,  0.0000,  0.0000)
  49 O      4.629800    3.836324    9.583266    ( 0.0000,  0.0000,  0.0000)
  50 Ti     2.703361    3.857158   10.330231    ( 0.0000,  0.0000,  0.0000)
  51 Ti     8.010411    5.758132   10.368088    ( 0.0000,  0.0000,  0.0000)
  52 Ti     0.497159    5.761238   11.304739    ( 0.0000,  0.0000,  0.0000)
  53 Ti     5.718114    3.821373   11.087952    ( 0.0000,  0.0000,  0.0000)
  54 O      0.908899    3.829950   11.098358    ( 0.0000,  0.0000,  0.0000)
  55 O      6.080756    5.747891   11.099936    ( 0.0000,  0.0000,  0.0000)
  56 O      9.028594    5.794882   11.987287    ( 0.0000,  0.0000,  0.0000)
  57 O      3.836524    3.822756   11.920376    ( 0.0000,  0.0000,  0.0000)
  58 O      7.559346    3.840446   10.451075    ( 0.0000,  0.0000,  0.0000)
  59 O      2.379635    5.741073   10.458072    ( 0.0000,  0.0000,  0.0000)
  60 O      0.898695    5.742333   13.209503    ( 0.0000,  0.0000,  0.0000)
  61 O      6.062628    3.831633   13.099478    ( 0.0000,  0.0000,  0.0000)
  62 Ti     4.086440    3.916768   13.781324    ( 0.0000,  0.0000,  0.0000)
  63 Ti     9.484778    5.747514   14.097173    ( 0.0000,  0.0000,  0.0000)
  64 Ti     1.950188    5.784398   14.985434    ( 0.0000,  0.0000,  0.0000)
  65 Ti     7.047533    3.882553   14.580944    ( 0.0000,  0.0000,  0.0000)
  66 O      2.343381    3.769386   14.623837    ( 0.0000,  0.0000,  0.0000)
  67 O      7.537210    5.732306   14.808709    ( 0.0000,  0.0000,  0.0000)
  68 O      0.211923    5.732880   15.595853    ( 0.0000,  0.0000,  0.0000)
  69 O      5.372308    4.005238   15.582470    ( 0.0000,  0.0000,  0.0000)
  70 O      8.968742    3.863091   13.974731    ( 0.0000,  0.0000,  0.0000)
  71 O      3.828214    5.741676   13.920795    ( 0.0000,  0.0000,  0.0000)
  72 O      8.476572    9.555862    6.000000    ( 0.0000,  0.0000,  0.0000)
  73 O      3.305699    7.644690    6.000000    ( 0.0000,  0.0000,  0.0000)
  74 Ti     1.412752    7.644690    6.752957    ( 0.0000,  0.0000,  0.0000)
  75 Ti     6.583625    9.555862    6.752957    ( 0.0000,  0.0000,  0.0000)
  76 Ti     9.522250    9.555862    7.640878    ( 0.0000,  0.0000,  0.0000)
  77 Ti     4.351376    7.644690    7.640878    ( 0.0000,  0.0000,  0.0000)
  78 O      9.861551    7.644690    7.505914    ( 0.0000,  0.0000,  0.0000)
  79 O      4.690678    9.555862    7.505914    ( 0.0000,  0.0000,  0.0000)
  80 O      7.629303    9.555862    8.393834    ( 0.0000,  0.0000,  0.0000)
  81 O      2.458430    7.644690    8.393834    ( 0.0000,  0.0000,  0.0000)
  82 O      6.244323    7.644690    6.887921    ( 0.0000,  0.0000,  0.0000)
  83 O      1.073450    9.555862    6.887921    ( 0.0000,  0.0000,  0.0000)
  84 O      9.813036    9.543232    9.606766    ( 0.0000,  0.0000,  0.0000)
  85 O      4.635900    7.650915    9.611086    ( 0.0000,  0.0000,  0.0000)
  86 Ti     2.776702    7.651993   10.320988    ( 0.0000,  0.0000,  0.0000)
  87 Ti     7.957090    9.573502   10.383317    ( 0.0000,  0.0000,  0.0000)
  88 Ti     0.486465    9.532271   11.193825    ( 0.0000,  0.0000,  0.0000)
  89 Ti     5.725219    7.619197   11.210968    ( 0.0000,  0.0000,  0.0000)
  90 O      0.909639    7.643373   11.101558    ( 0.0000,  0.0000,  0.0000)
  91 O      6.097417    9.564663   11.087907    ( 0.0000,  0.0000,  0.0000)
  92 O      9.042529    9.557146   11.980793    ( 0.0000,  0.0000,  0.0000)
  93 O      3.847103    7.645699   11.944931    ( 0.0000,  0.0000,  0.0000)
  94 O      7.556950    7.652203   10.459978    ( 0.0000,  0.0000,  0.0000)
  95 O      2.379019    9.544138   10.457158    ( 0.0000,  0.0000,  0.0000)
  96 O      0.939979    9.544562   13.181701    ( 0.0000,  0.0000,  0.0000)
  97 O      6.048178    7.698346   13.217132    ( 0.0000,  0.0000,  0.0000)
  98 Ti     4.189626    7.716015   13.826887    ( 0.0000,  0.0000,  0.0000)
  99 Ti     9.427014    9.678299   14.060556    ( 0.0000,  0.0000,  0.0000)
 100 Ti     1.868684    9.558782   14.716491    ( 0.0000,  0.0000,  0.0000)
 101 Ti     7.223598    7.704622   14.837040    ( 0.0000,  0.0000,  0.0000)
 102 O      2.350496    7.677351   14.812712    ( 0.0000,  0.0000,  0.0000)
 103 O      7.560576    9.670494   14.766670    ( 0.0000,  0.0000,  0.0000)
 104 O      0.225566    9.707365   15.536285    ( 0.0000,  0.0000,  0.0000)
 105 O      5.165218    7.597965   15.548415    ( 0.0000,  0.0000,  0.0000)
 106 O      9.011355    7.685665   14.134870    ( 0.0000,  0.0000,  0.0000)
 107 O      3.822042    9.561488   13.971202    ( 0.0000,  0.0000,  0.0000)
 108 V      5.721299    7.576197   17.227321    ( 0.0000,  0.0000,  0.0000)
 109 V      4.453835    4.681328   17.069074    ( 0.0000,  0.0000,  0.0000)
 110 O      7.400354    7.830794   16.740621    ( 0.0000,  0.0000,  0.0000)
 111 O      4.105951    3.474109   18.043201    ( 0.0000,  0.0000,  0.0000)
 112 O      5.456459    5.897933   17.880380    ( 0.0000,  0.0000,  0.0000)
 113 O      5.007240    8.731929   18.062385    ( 0.0000,  0.0000,  0.0000)
 114 O      2.975794    5.480862   16.547099    ( 0.0000,  0.0000,  0.0000)

Unit cell:
           periodic     x           y           z      points  spacing
  1. axis:    yes   10.341746    0.000000    0.000000    54     0.1915
  2. axis:    yes   -0.000000   11.467000    0.000000    60     0.1911
  3. axis:    no     0.000000    0.000000   23.497201   125     0.1880

  Lengths:  10.341746  11.467000  23.497201
  Angles:   90.000000  90.000000  90.000000

Effective grid spacing dv^(1/3) = 0.1902

                     log10-error:    total        iterations:
           time      wfs    density  energy       fermi  poisson
iter:   1  21:57:58  -2.46   +inf  -955.870314    2             
iter:   2  21:58:53  -3.43  -3.02  -955.870193    2             
iter:   3  21:59:48  -3.11  -3.04  -955.856280    2             
iter:   4  22:00:42  -4.31  -3.26  -955.853275    2             
iter:   5  22:01:37  -4.78  -3.27  -955.852134    1             
iter:   6  22:02:32  -4.31  -3.30  -955.849548    2             
iter:   7  22:03:26  -4.63  -3.66  -955.849552    1             
iter:   8  22:04:21  -4.90  -3.79  -955.848878    2             
iter:   9  22:05:16  -5.66  -3.97  -955.848966    2             
iter:  10  22:06:11  -5.39  -4.01  -955.848973    2             
iter:  11  22:07:05  -5.53  -4.09  -955.848820    2             
iter:  12  22:08:00  -6.24  -4.34  -955.848806    1             
iter:  13  22:08:55  -6.65  -4.38  -955.848808    1             
iter:  14  22:09:49  -6.65  -4.52  -955.848811    1             
iter:  15  22:10:44  -7.11  -4.67  -955.848807    1             
iter:  16  22:11:39  -7.50  -4.78  -955.848806    1             

Converged after 16 iterations.

Dipole moment: (-16.894262, -22.019593, -1.460298) |e|*Ang

Energy contributions relative to reference atoms: (reference = -1044851.132452)

Kinetic:       +675.525139
Potential:     -867.023272
External:        +0.000000
XC:            -772.058982
Entropy (-ST):   -0.000495
Local:           +7.708557
--------------------------
Free energy:   -955.849053
Extrapolated:  -955.848806

Fermi level: -0.77174

Showing only first 2 kpts
 Kpt  Band  Eigenvalues  Occupancy
  0   458     -1.84948    0.22222
  0   459     -1.83955    0.22222
  0   460      0.08257    0.00004
  0   461      0.22219    0.00001

  1   458     -1.85343    0.44444
  1   459     -1.83274    0.44443
  1   460      0.27457    0.00001
  1   461      0.35864    0.00001



Forces in eV/Ang:
  0 O    -1.86614   -0.00065    1.57930
  1 O    -1.94322    0.00253    1.54746
  2 Ti    3.85468   -0.00813    1.92662
  3 Ti    3.80450   -0.01364    1.92236
  4 Ti   -1.90154   -0.01691   -1.90132
  5 Ti   -1.85603   -0.00831   -1.99959
  6 O     0.88052   -0.01714   -0.17362
  7 O     0.87005    0.05906   -0.19163
  8 O    -0.60307    0.03201   -0.59670
  9 O    -0.71853   -0.01357   -0.63418
 10 O    -0.26921    0.01118   -0.85291
 11 O    -0.24484    0.09014   -0.90074
 12 O    -0.07671    0.00300    0.00202
 13 O    -0.07784    0.00272    0.01485
 14 Ti    0.05759   -0.00562    0.00111
 15 Ti   -0.05334    0.03796   -0.00132
 16 Ti   -0.01533    0.02054   -0.09188
 17 Ti    0.00709    0.02236    0.06770
 18 O     0.06082    0.04650    0.01912
 19 O     0.12130    0.00136   -0.08921
 20 O     0.12001   -0.00587    0.11663
 21 O     0.02337    0.01765   -0.03028
 22 O     0.05229    0.01080    0.06448
 23 O    -0.00734    0.01763    0.08523
 24 O    -0.22380    0.00232   -0.61727
 25 O    -0.01165    0.02289    0.05700
 26 Ti   -0.25103   -0.06560    0.09116
 27 Ti    0.03609    0.03014    0.39025
 28 Ti    0.05816   -0.23728   -0.35695
 29 Ti    0.09218    0.05643   -0.02569
 30 O     0.13418    0.01043    0.40861
 31 O    -0.00280    0.01683    0.10476
 32 O     0.05634   -0.04036    0.00729
 33 O     0.17487    0.00822    0.03494
 34 O    -0.12322   -0.01258    0.12587
 35 O    -0.09062    0.10546    0.19697
 36 O    -1.85870   -0.00343    1.55206
 37 O    -1.98642    0.00483    1.59587
 38 Ti    3.61488   -0.03090    1.69834
 39 Ti    3.88388    0.02099    1.97729
 40 Ti   -1.92166    0.00505   -1.51194
 41 Ti   -1.56194   -0.01646   -1.98769
 42 O     0.94146   -0.02740   -0.19413
 43 O     0.83165    0.01045   -0.20262
 44 O    -0.69702    0.03554   -0.72331
 45 O    -0.74286   -0.00112   -0.68133
 46 O    -0.31707   -0.01874   -0.87212
 47 O    -0.20733   -0.01155   -0.88390
 48 O    -0.05827    0.00669   -0.00120
 49 O    -0.06881   -0.00002    0.03177
 50 Ti    0.08294   -0.00222    0.00239
 51 Ti    0.02899    0.00083    0.04551
 52 Ti    0.07386   -0.03435    0.14422
 53 Ti   -0.07734    0.05776    0.06056
 54 O     0.04596   -0.04928    0.00165
 55 O     0.13222   -0.06223   -0.03435
 56 O    -0.05985   -0.01994    0.07541
 57 O     0.09942   -0.01508    0.02122
 58 O     0.05913   -0.05145    0.06380
 59 O    -0.01105   -0.00658    0.12321
 60 O     0.01464    0.01472   -0.11475
 61 O    -0.02554    0.00547    0.05869
 62 Ti   -0.03913   -0.27738    0.14625
 63 Ti    0.03571    0.07166   -0.15679
 64 Ti   -0.04953   -0.11458    0.01431
 65 Ti    0.01441   -0.06200    0.03219
 66 O     0.17706    0.31466    0.25228
 67 O     0.01428    0.07306    0.05992
 68 O    -0.03485   -0.00428   -0.12937
 69 O    -0.14510   -0.03233   -0.03286
 70 O    -0.13199    0.00776    0.16566
 71 O    -0.20987    0.13272   -0.01801
 72 O    -1.84217   -0.00456    1.58808
 73 O    -1.94932   -0.00301    1.59176
 74 Ti    3.65700    0.04039    1.74339
 75 Ti    3.80327    0.00014    1.95787
 76 Ti   -1.93347    0.00431   -1.83175
 77 Ti   -1.52319    0.02065   -1.65525
 78 O     0.93827    0.00849   -0.20307
 79 O     0.86665   -0.04017   -0.20415
 80 O    -0.58342    0.01488   -0.54398
 81 O    -0.70974   -0.01007   -0.69409
 82 O    -0.31843    0.00751   -0.87205
 83 O    -0.24755   -0.08038   -0.90166
 84 O    -0.09683    0.01364   -0.00347
 85 O    -0.04170    0.00398   -0.01034
 86 Ti    0.04432   -0.01974    0.07470
 87 Ti    0.01327   -0.05179    0.00604
 88 Ti    0.02631    0.00576   -0.08853
 89 Ti   -0.08008    0.06463    0.13121
 90 O     0.09955    0.05786   -0.01214
 91 O     0.10636    0.00168   -0.05871
 92 O     0.07196    0.02390    0.12646
 93 O     0.04570    0.01878    0.08459
 94 O     0.04904    0.02193    0.07944
 95 O    -0.00431    0.04955    0.10051
 96 O    -0.21687    0.00119   -0.57443
 97 O     0.01675    0.01743   -0.15059
 98 Ti   -0.12801    0.09299    0.07815
 99 Ti   -0.04573   -0.08897    0.18508
100 Ti   -0.05361    0.21625   -0.38550
101 Ti   -0.03137   -0.02288    0.06047
102 O     0.06358   -0.01728    0.17164
103 O     0.01421   -0.08474   -0.08085
104 O    -0.03027   -0.09979   -0.06068
105 O     0.27890   -0.06811    0.11611
106 O    -0.14669    0.04185    0.00562
107 O    -0.09447   -0.01997    0.13073
108 V     0.05150   -0.16730   -0.19304
109 V    -0.11670    0.15338   -0.36481
110 O    -0.18846   -0.00694   -0.01708
111 O     0.01138   -0.05702    0.10849
112 O    -0.00953    0.01023    0.16975
113 O     0.17944    0.08278    0.19700
114 O     0.09560   -0.09626    0.22766

System changes: positions 

Initializing position-dependent things.

Density initialized from wave functions
                                                
                                                
                                                
                                                
                                                
                                                
                         O                      
                          V O                   
              O     O   O     O                 
                  TO V   O      O               
                  O   O       Ti    Ti          
           O   Ti     TiO         O             
                O      O   OTO    Ti            
         O     O    OTi    Ti    O O            
             Tii   TiO    OOO   O               
              O   OO    TiTi   TiOi             
          O Ti   TiOi     O  O O     O          
           O    O     OTi     TiO               
                TiO      O  O  O   O Ti         
         Ti   O O    O Oi    Ti     O           
               Ti          OTi    Ti            
             O O    O O         O               
                    Ti     Oi     O             
             Oi     O    O      Ti              
           O     OTi    Ti     O                
          Ti          O      O                  
               O                                
                                                
                                                
                                                
                                                

Positions:
   0 O      8.476572    1.911173    6.000000    ( 0.0000,  0.0000,  0.0000)
   1 O      3.305699    0.000000    6.000000    ( 0.0000,  0.0000,  0.0000)
   2 Ti     1.412752    0.000000    6.752957    ( 0.0000,  0.0000,  0.0000)
   3 Ti     6.583625    1.911173    6.752957    ( 0.0000,  0.0000,  0.0000)
   4 Ti     9.522250    1.911173    7.640878    ( 0.0000,  0.0000,  0.0000)
   5 Ti     4.351376    0.000000    7.640878    ( 0.0000,  0.0000,  0.0000)
   6 O      9.861551    0.000000    7.505914    ( 0.0000,  0.0000,  0.0000)
   7 O      4.690678    1.911173    7.505914    ( 0.0000,  0.0000,  0.0000)
   8 O      7.629303    1.911173    8.393834    ( 0.0000,  0.0000,  0.0000)
   9 O      2.458430    0.000000    8.393834    ( 0.0000,  0.0000,  0.0000)
  10 O      6.244323    0.000000    6.887921    ( 0.0000,  0.0000,  0.0000)
  11 O      1.073450    1.911173    6.887921    ( 0.0000,  0.0000,  0.0000)
  12 O      9.811848    1.901163    9.599659    ( 0.0000,  0.0000,  0.0000)
  13 O      4.625085   11.469856    9.580025    ( 0.0000,  0.0000,  0.0000)
  14 Ti     2.754328   11.460240   10.377477    ( 0.0000,  0.0000,  0.0000)
  15 Ti     7.958654    1.907204   10.373998    ( 0.0000,  0.0000,  0.0000)
  16 Ti     0.511061    1.902555   11.166602    ( 0.0000,  0.0000,  0.0000)
  17 Ti     5.667105   11.453742   11.125631    ( 0.0000,  0.0000,  0.0000)
  18 O      0.909528   11.453862   11.094569    ( 0.0000,  0.0000,  0.0000)
  19 O      6.094048    1.920293   11.064483    ( 0.0000,  0.0000,  0.0000)
  20 O      9.031990    1.954284   11.961597    ( 0.0000,  0.0000,  0.0000)
  21 O      3.865018   11.455706   11.938750    ( 0.0000,  0.0000,  0.0000)
  22 O      7.574685   11.473066   10.454250    ( 0.0000,  0.0000,  0.0000)
  23 O      2.365063    1.909242   10.457827    ( 0.0000,  0.0000,  0.0000)
  24 O      0.922132    1.868764   13.129151    ( 0.0000,  0.0000,  0.0000)
  25 O      6.106535    0.060641   13.059420    ( 0.0000,  0.0000,  0.0000)
  26 Ti     4.215605    0.072505   13.974906    ( 0.0000,  0.0000,  0.0000)
  27 Ti     9.392304    1.955177   14.001561    ( 0.0000,  0.0000,  0.0000)
  28 Ti     1.835655    1.910509   14.655310    ( 0.0000,  0.0000,  0.0000)
  29 Ti     6.999930    0.060550   14.607213    ( 0.0000,  0.0000,  0.0000)
  30 O      2.385961   11.486373   14.789015    ( 0.0000,  0.0000,  0.0000)
  31 O      7.541401    1.969173   14.818652    ( 0.0000,  0.0000,  0.0000)
  32 O      0.205371    1.986919   15.484432    ( 0.0000,  0.0000,  0.0000)
  33 O      5.386489   11.485236   15.437243    ( 0.0000,  0.0000,  0.0000)
  34 O      9.028798    0.069837   13.967757    ( 0.0000,  0.0000,  0.0000)
  35 O      3.866848    1.917050   13.970936    ( 0.0000,  0.0000,  0.0000)
  36 O      8.476572    5.733518    6.000000    ( 0.0000,  0.0000,  0.0000)
  37 O      3.305699    3.822345    6.000000    ( 0.0000,  0.0000,  0.0000)
  38 Ti     1.412752    3.822345    6.752957    ( 0.0000,  0.0000,  0.0000)
  39 Ti     6.583625    5.733518    6.752957    ( 0.0000,  0.0000,  0.0000)
  40 Ti     9.522250    5.733518    7.640878    ( 0.0000,  0.0000,  0.0000)
  41 Ti     4.351376    3.822345    7.640878    ( 0.0000,  0.0000,  0.0000)
  42 O      9.861551    3.822345    7.505914    ( 0.0000,  0.0000,  0.0000)
  43 O      4.690678    5.733518    7.505914    ( 0.0000,  0.0000,  0.0000)
  44 O      7.629303    5.733518    8.393834    ( 0.0000,  0.0000,  0.0000)
  45 O      2.458430    3.822345    8.393834    ( 0.0000,  0.0000,  0.0000)
  46 O      6.244323    3.822345    6.887921    ( 0.0000,  0.0000,  0.0000)
  47 O      1.073450    5.733518    6.887921    ( 0.0000,  0.0000,  0.0000)
  48 O      9.802566    5.729308    9.617207    ( 0.0000,  0.0000,  0.0000)
  49 O      4.626910    3.836350    9.583798    ( 0.0000,  0.0000,  0.0000)
  50 Ti     2.706347    3.857264   10.329855    ( 0.0000,  0.0000,  0.0000)
  51 Ti     8.010268    5.758113   10.368862    ( 0.0000,  0.0000,  0.0000)
  52 Ti     0.499297    5.760480   11.307943    ( 0.0000,  0.0000,  0.0000)
  53 Ti     5.716122    3.823209   11.090892    ( 0.0000,  0.0000,  0.0000)
  54 O      0.910248    3.828245   11.098504    ( 0.0000,  0.0000,  0.0000)
  55 O      6.085040    5.745851   11.098766    ( 0.0000,  0.0000,  0.0000)
  56 O      9.027196    5.794338   11.989976    ( 0.0000,  0.0000,  0.0000)
  57 O      3.838583    3.822127   11.919548    ( 0.0000,  0.0000,  0.0000)
  58 O      7.561367    3.838902   10.452791    ( 0.0000,  0.0000,  0.0000)
  59 O      2.379116    5.741018   10.461771    ( 0.0000,  0.0000,  0.0000)
  60 O      0.899665    5.742607   13.205284    ( 0.0000,  0.0000,  0.0000)
  61 O      6.061092    3.831590   13.100281    ( 0.0000,  0.0000,  0.0000)
  62 Ti     4.089382    3.912563   13.785671    ( 0.0000,  0.0000,  0.0000)
  63 Ti     9.483734    5.750334   14.094372    ( 0.0000,  0.0000,  0.0000)
  64 Ti     1.951593    5.780526   14.989529    ( 0.0000,  0.0000,  0.0000)
  65 Ti     7.045538    3.882665   14.584071    ( 0.0000,  0.0000,  0.0000)
  66 O      2.345332    3.773237   14.632585    ( 0.0000,  0.0000,  0.0000)
  67 O      7.538768    5.733473   14.809692    ( 0.0000,  0.0000,  0.0000)
  68 O      0.210522    5.732573   15.591618    ( 0.0000,  0.0000,  0.0000)
  69 O      5.370676    4.002319   15.576626    ( 0.0000,  0.0000,  0.0000)
  70 O      8.965936    3.861338   13.979132    ( 0.0000,  0.0000,  0.0000)
  71 O      3.821767    5.744638   13.919607    ( 0.0000,  0.0000,  0.0000)
  72 O      8.476572    9.555862    6.000000    ( 0.0000,  0.0000,  0.0000)
  73 O      3.305699    7.644690    6.000000    ( 0.0000,  0.0000,  0.0000)
  74 Ti     1.412752    7.644690    6.752957    ( 0.0000,  0.0000,  0.0000)
  75 Ti     6.583625    9.555862    6.752957    ( 0.0000,  0.0000,  0.0000)
  76 Ti     9.522250    9.555862    7.640878    ( 0.0000,  0.0000,  0.0000)
  77 Ti     4.351376    7.644690    7.640878    ( 0.0000,  0.0000,  0.0000)
  78 O      9.861551    7.644690    7.505914    ( 0.0000,  0.0000,  0.0000)
  79 O      4.690678    9.555862    7.505914    ( 0.0000,  0.0000,  0.0000)
  80 O      7.629303    9.555862    8.393834    ( 0.0000,  0.0000,  0.0000)
  81 O      2.458430    7.644690    8.393834    ( 0.0000,  0.0000,  0.0000)
  82 O      6.244323    7.644690    6.887921    ( 0.0000,  0.0000,  0.0000)
  83 O      1.073450    9.555862    6.887921    ( 0.0000,  0.0000,  0.0000)
  84 O      9.810252    9.543630    9.607540    ( 0.0000,  0.0000,  0.0000)
  85 O      4.634043    7.651056    9.610601    ( 0.0000,  0.0000,  0.0000)
  86 Ti     2.777968    7.651306   10.322849    ( 0.0000,  0.0000,  0.0000)
  87 Ti     7.956763    9.571960   10.382379    ( 0.0000,  0.0000,  0.0000)
  88 Ti     0.487419    9.531822   11.190538    ( 0.0000,  0.0000,  0.0000)
  89 Ti     5.723276    7.620879   11.215563    ( 0.0000,  0.0000,  0.0000)
  90 O      0.912852    7.645299   11.101231    ( 0.0000,  0.0000,  0.0000)
  91 O      6.101128    9.564919   11.086036    ( 0.0000,  0.0000,  0.0000)
  92 O      9.044923    9.557878   11.985366    ( 0.0000,  0.0000,  0.0000)
  93 O      3.847796    7.646183   11.945739    ( 0.0000,  0.0000,  0.0000)
  94 O      7.558542    7.653079   10.462232    ( 0.0000,  0.0000,  0.0000)
  95 O      2.378536    9.545705   10.460290    ( 0.0000,  0.0000,  0.0000)
  96 O      0.936983    9.544953   13.170770    ( 0.0000,  0.0000,  0.0000)
  97 O      6.048006    7.698934   13.210808    ( 0.0000,  0.0000,  0.0000)
  98 Ti     4.189377    7.715717   13.832494    ( 0.0000,  0.0000,  0.0000)
  99 Ti     9.422880    9.674011   14.063915    ( 0.0000,  0.0000,  0.0000)
 100 Ti     1.863400    9.559825   14.698676    ( 0.0000,  0.0000,  0.0000)
 101 Ti     7.219943    7.703277   14.843775    ( 0.0000,  0.0000,  0.0000)
 102 O      2.351400    7.681720   14.817900    ( 0.0000,  0.0000,  0.0000)
 103 O      7.562456    9.669975   14.763428    ( 0.0000,  0.0000,  0.0000)
 104 O      0.228181    9.705035   15.537630    ( 0.0000,  0.0000,  0.0000)
 105 O      5.171027    7.596288   15.546107    ( 0.0000,  0.0000,  0.0000)
 106 O      9.009544    7.687564   14.133712    ( 0.0000,  0.0000,  0.0000)
 107 O      3.816914    9.563761   13.976172    ( 0.0000,  0.0000,  0.0000)
 108 V      5.719919    7.574077   17.227012    ( 0.0000,  0.0000,  0.0000)
 109 V      4.451010    4.682731   17.065627    ( 0.0000,  0.0000,  0.0000)
 110 O      7.397393    7.830945   16.737262    ( 0.0000,  0.0000,  0.0000)
 111 O      4.106915    3.475208   18.043378    ( 0.0000,  0.0000,  0.0000)
 112 O      5.456460    5.897880   17.885343    ( 0.0000,  0.0000,  0.0000)
 113 O      5.014037    8.731917   18.066121    ( 0.0000,  0.0000,  0.0000)
 114 O      2.974089    5.479494   16.549275    ( 0.0000,  0.0000,  0.0000)

Unit cell:
           periodic     x           y           z      points  spacing
  1. axis:    yes   10.341746    0.000000    0.000000    54     0.1915
  2. axis:    yes   -0.000000   11.467000    0.000000    60     0.1911
  3. axis:    no     0.000000    0.000000   23.497201   125     0.1880

  Lengths:  10.341746  11.467000  23.497201
  Angles:   90.000000  90.000000  90.000000

Effective grid spacing dv^(1/3) = 0.1902

                     log10-error:    total        iterations:
           time      wfs    density  energy       fermi  poisson
iter:   1  22:12:53  -2.91   +inf  -955.916554    2             
iter:   2  22:13:48  -3.82  -3.26  -955.917246    2             
iter:   3  22:14:43  -3.69  -3.28  -955.912271    2             
iter:   4  22:15:38  -4.57  -3.50  -955.912250    2             
iter:   5  22:16:32  -5.02  -3.52  -955.911863    2             
iter:   6  22:17:27  -4.86  -3.59  -955.911480    2             
iter:   7  22:18:22  -5.41  -3.89  -955.911262    2             
iter:   8  22:19:16  -5.48  -4.09  -955.911253    2             
iter:   9  22:20:11  -5.96  -4.21  -955.911248    2             
iter:  10  22:21:06  -6.12  -4.29  -955.911214    2             
iter:  11  22:22:01  -6.70  -4.49  -955.911211    1             
iter:  12  22:22:55  -7.37  -4.60  -955.911209    1             
iter:  13  22:23:50  -6.97  -4.63  -955.911209    1             
iter:  14  22:24:45  -7.53  -4.84  -955.911209    1             

Converged after 14 iterations.

Dipole moment: (-17.145008, -22.556329, -1.431139) |e|*Ang

Energy contributions relative to reference atoms: (reference = -1044851.132452)

Kinetic:       +676.484359
Potential:     -867.862155
External:        +0.000000
XC:            -772.244918
Entropy (-ST):   -0.000493
Local:           +7.711752
--------------------------
Free energy:   -955.911456
Extrapolated:  -955.911209

Fermi level: -0.76393

Showing only first 2 kpts
 Kpt  Band  Eigenvalues  Occupancy
  0   458     -1.84217    0.22222
  0   459     -1.83106    0.22222
  0   460      0.09115    0.00004
  0   461      0.23167    0.00001

  1   458     -1.84592    0.44444
  1   459     -1.82471    0.44443
  1   460      0.28255    0.00001
  1   461      0.36915    0.00001



Forces in eV/Ang:
  0 O    -1.86555   -0.00094    1.58184
  1 O    -1.94210    0.00310    1.54749
  2 Ti    3.85467   -0.01117    1.92749
  3 Ti    3.80008   -0.01190    1.91928
  4 Ti   -1.89799   -0.01449   -1.89382
  5 Ti   -1.85738   -0.01261   -2.00045
  6 O     0.88054   -0.01451   -0.17205
  7 O     0.87130    0.05989   -0.18937
  8 O    -0.61013    0.03123   -0.60211
  9 O    -0.72710   -0.01280   -0.64446
 10 O    -0.26913    0.01416   -0.85211
 11 O    -0.24598    0.08919   -0.89682
 12 O    -0.07781    0.00377   -0.06060
 13 O    -0.02941    0.00269    0.03789
 14 Ti   -0.00573    0.00898    0.00343
 15 Ti    0.01975    0.02695    0.06948
 16 Ti   -0.05706   -0.00451   -0.08458
 17 Ti    0.03175    0.02455    0.02729
 18 O     0.05783    0.02393    0.00151
 19 O     0.05625    0.01178   -0.05682
 20 O     0.05985   -0.00183    0.06884
 21 O     0.03824    0.02068    0.03536
 22 O     0.03611   -0.00334    0.06699
 23 O     0.04517    0.02717    0.06251
 24 O    -0.24665   -0.00217   -0.61720
 25 O    -0.00925    0.02573    0.06983
 26 Ti   -0.22623   -0.03353    0.14223
 27 Ti    0.09042   -0.01398    0.36400
 28 Ti    0.15623   -0.19560   -0.04207
 29 Ti    0.08163    0.04940   -0.08495
 30 O     0.13491   -0.02355    0.31276
 31 O    -0.04154    0.04740    0.12708
 32 O     0.02840   -0.04060   -0.12951
 33 O     0.12118    0.00096    0.04532
 34 O    -0.10612   -0.02279    0.13989
 35 O    -0.06714    0.07786    0.14562
 36 O    -1.86059   -0.00381    1.54908
 37 O    -1.98331    0.00415    1.59685
 38 Ti    3.61231   -0.02533    1.70123
 39 Ti    3.88987    0.02475    1.98267
 40 Ti   -1.92341    0.00743   -1.48870
 41 Ti   -1.56552   -0.01184   -1.99692
 42 O     0.94244   -0.03466   -0.19447
 43 O     0.83084    0.00434   -0.20078
 44 O    -0.70617    0.03483   -0.72670
 45 O    -0.74794    0.00055   -0.68655
 46 O    -0.31832   -0.02483   -0.87122
 47 O    -0.20626   -0.01591   -0.88905
 48 O    -0.04283    0.00849    0.01066
 49 O    -0.02988    0.00005    0.04572
 50 Ti    0.03216   -0.02718    0.00142
 51 Ti    0.05093   -0.00236    0.03313
 52 Ti    0.05713   -0.04048    0.09333
 53 Ti   -0.03996    0.05618    0.00255
 54 O     0.04353    0.01037   -0.00227
 55 O     0.08667   -0.03511   -0.02131
 56 O    -0.03971   -0.02066    0.07766
 57 O     0.11415   -0.01845    0.09761
 58 O     0.03839   -0.02752    0.07102
 59 O     0.00331   -0.00526    0.11998
 60 O     0.01294    0.01779   -0.05030
 61 O     0.00229   -0.00191    0.09043
 62 Ti   -0.13191   -0.22737    0.11166
 63 Ti    0.02409    0.04519   -0.19960
 64 Ti   -0.08026   -0.06521   -0.09512
 65 Ti    0.08635   -0.07048   -0.03898
 66 O     0.18173    0.28642    0.19033
 67 O    -0.02011    0.06641    0.06725
 68 O    -0.01862    0.00060   -0.09798
 69 O    -0.19263    0.00698    0.04303
 70 O    -0.12387    0.06536    0.17544
 71 O    -0.17520    0.10213    0.00457
 72 O    -1.84154   -0.00376    1.58909
 73 O    -1.94934   -0.00286    1.58862
 74 Ti    3.66279    0.03774    1.75188
 75 Ti    3.80048   -0.00530    1.95842
 76 Ti   -1.93360   -0.00053   -1.82960
 77 Ti   -1.53185    0.02045   -1.64878
 78 O     0.93739    0.01410   -0.20283
 79 O     0.86815   -0.03451   -0.20384
 80 O    -0.59320    0.01564   -0.55089
 81 O    -0.71609   -0.00970   -0.68745
 82 O    -0.31691    0.01058   -0.87691
 83 O    -0.24892   -0.07489   -0.90375
 84 O    -0.08746    0.01171   -0.03739
 85 O    -0.01820    0.00189    0.02183
 86 Ti    0.02087   -0.00573    0.03774
 87 Ti    0.05714   -0.03552    0.05484
 88 Ti   -0.00972    0.05064   -0.08987
 89 Ti   -0.03085    0.05348    0.07779
 90 O     0.07712    0.00720   -0.01179
 91 O     0.04212   -0.00112   -0.03424
 92 O     0.02874    0.02120    0.06455
 93 O     0.04813    0.03234    0.13302
 94 O     0.03267    0.00164    0.08517
 95 O     0.03311    0.02883    0.08326
 96 O    -0.20575    0.00976   -0.49418
 97 O     0.00045    0.02122   -0.05439
 98 Ti   -0.19306    0.04980   -0.02670
 99 Ti   -0.03002   -0.02554    0.12218
100 Ti    0.02667    0.23061   -0.15052
101 Ti    0.03646   -0.00979   -0.11305
102 O     0.06579   -0.08129    0.14032
103 O    -0.03923   -0.11109   -0.04088
104 O    -0.04458   -0.10038   -0.16480
105 O     0.23571   -0.06350    0.09523
106 O    -0.14877   -0.00220    0.03015
107 O    -0.03498   -0.01250    0.09224
108 V     0.04771   -0.15535   -0.06513
109 V    -0.03220    0.05025   -0.21489
110 O    -0.14146   -0.00710    0.06086
111 O     0.02515    0.02178    0.02848
112 O    -0.05377   -0.00711    0.07738
113 O     0.17246    0.06156    0.15974
114 O     0.08718   -0.05592    0.27133

System changes: positions 

Initializing position-dependent things.

Density initialized from wave functions
                                                
                                                
                                                
                                                
                                                
                                                
                         O                      
                          V O                   
              O     O   O     O                 
                  TO V   O      O               
                  O   O       Ti    Ti          
           O   Ti     TiO         O             
                O      O   OTO    Ti            
         O     O    OTi    Ti    O O            
             Tii   TiO    OOO   O               
              O   O     TiTi   TiOi             
          O Ti   TiOi     O  O O     O          
           O    O     OTi     TiO               
                TiO      O  O  O   O Ti         
         Ti   O O    O Oi    Ti     O           
               Ti          OTi    Ti            
             O O    O O         O               
                    Ti     Oi     O             
             Oi     O    O      Ti              
           O     OTi    Ti     O                
          Ti          O      O                  
               O                                
                                                
                                                
                                                
                                                

Positions:
   0 O      8.476572    1.911173    6.000000    ( 0.0000,  0.0000,  0.0000)
   1 O      3.305699    0.000000    6.000000    ( 0.0000,  0.0000,  0.0000)
   2 Ti     1.412752    0.000000    6.752957    ( 0.0000,  0.0000,  0.0000)
   3 Ti     6.583625    1.911173    6.752957    ( 0.0000,  0.0000,  0.0000)
   4 Ti     9.522250    1.911173    7.640878    ( 0.0000,  0.0000,  0.0000)
   5 Ti     4.351376    0.000000    7.640878    ( 0.0000,  0.0000,  0.0000)
   6 O      9.861551    0.000000    7.505914    ( 0.0000,  0.0000,  0.0000)
   7 O      4.690678    1.911173    7.505914    ( 0.0000,  0.0000,  0.0000)
   8 O      7.629303    1.911173    8.393834    ( 0.0000,  0.0000,  0.0000)
   9 O      2.458430    0.000000    8.393834    ( 0.0000,  0.0000,  0.0000)
  10 O      6.244323    0.000000    6.887921    ( 0.0000,  0.0000,  0.0000)
  11 O      1.073450    1.911173    6.887921    ( 0.0000,  0.0000,  0.0000)
  12 O      9.806638    1.901377    9.599894    ( 0.0000,  0.0000,  0.0000)
[...]
                                                
                                                
                                                
                                                

Positions:
   0 O      8.476572    1.911173    6.000000    ( 0.0000,  0.0000,  0.0000)
   1 O      3.305699    0.000000    6.000000    ( 0.0000,  0.0000,  0.0000)
   2 Ti     1.412752    0.000000    6.752957    ( 0.0000,  0.0000,  0.0000)
   3 Ti     6.583625    1.911173    6.752957    ( 0.0000,  0.0000,  0.0000)
   4 Ti     9.522250    1.911173    7.640878    ( 0.0000,  0.0000,  0.0000)
   5 Ti     4.351376    0.000000    7.640878    ( 0.0000,  0.0000,  0.0000)
   6 O      9.861551    0.000000    7.505914    ( 0.0000,  0.0000,  0.0000)
   7 O      4.690678    1.911173    7.505914    ( 0.0000,  0.0000,  0.0000)
   8 O      7.629303    1.911173    8.393834    ( 0.0000,  0.0000,  0.0000)
   9 O      2.458430    0.000000    8.393834    ( 0.0000,  0.0000,  0.0000)
  10 O      6.244323    0.000000    6.887921    ( 0.0000,  0.0000,  0.0000)
  11 O      1.073450    1.911173    6.887921    ( 0.0000,  0.0000,  0.0000)
  12 O      9.799756    1.918469    9.606060    ( 0.0000,  0.0000,  0.0000)
  13 O      4.628807   11.478746    9.605660    ( 0.0000,  0.0000,  0.0000)
  14 Ti     2.780581   11.479013   10.402173    ( 0.0000,  0.0000,  0.0000)
  15 Ti     7.958386    1.914153   10.405284    ( 0.0000,  0.0000,  0.0000)
  16 Ti     0.494760    1.915013   11.166479    ( 0.0000,  0.0000,  0.0000)
  17 Ti     5.662100   11.481533   11.166180    ( 0.0000,  0.0000,  0.0000)
  18 O      0.919537   11.476012   11.074436    ( 0.0000,  0.0000,  0.0000)
  19 O      6.096601    1.928900   11.069546    ( 0.0000,  0.0000,  0.0000)
  20 O      9.038699    1.946994   11.992513    ( 0.0000,  0.0000,  0.0000)
  21 O      3.869424   11.476630   11.989149    ( 0.0000,  0.0000,  0.0000)
  22 O      7.579390   11.479333   10.502685    ( 0.0000,  0.0000,  0.0000)
  23 O      2.396821    1.924109   10.495291    ( 0.0000,  0.0000,  0.0000)
  24 O      0.908837    1.870013   13.126414    ( 0.0000,  0.0000,  0.0000)
  25 O      6.088992    0.097918   13.123386    ( 0.0000,  0.0000,  0.0000)
  26 Ti     4.226515    0.017982   14.080514    ( 0.0000,  0.0000,  0.0000)
  27 Ti     9.404628    1.947626   14.089329    ( 0.0000,  0.0000,  0.0000)
  28 Ti     1.862001    1.898663   14.641505    ( 0.0000,  0.0000,  0.0000)
  29 Ti     7.018700    0.058859   14.645164    ( 0.0000,  0.0000,  0.0000)
  30 O      2.380967   11.480181   14.869812    ( 0.0000,  0.0000,  0.0000)
  31 O      7.530440    1.967617   14.883930    ( 0.0000,  0.0000,  0.0000)
  32 O      0.239790    1.973806   15.515725    ( 0.0000,  0.0000,  0.0000)
  33 O      5.411153   11.463057   15.515579    ( 0.0000,  0.0000,  0.0000)
  34 O      9.012035    0.062733   14.095859    ( 0.0000,  0.0000,  0.0000)
  35 O      3.846878    1.921208   14.097672    ( 0.0000,  0.0000,  0.0000)
  36 O      8.476572    5.733518    6.000000    ( 0.0000,  0.0000,  0.0000)
  37 O      3.305699    3.822345    6.000000    ( 0.0000,  0.0000,  0.0000)
  38 Ti     1.412752    3.822345    6.752957    ( 0.0000,  0.0000,  0.0000)
  39 Ti     6.583625    5.733518    6.752957    ( 0.0000,  0.0000,  0.0000)
  40 Ti     9.522250    5.733518    7.640878    ( 0.0000,  0.0000,  0.0000)
  41 Ti     4.351376    3.822345    7.640878    ( 0.0000,  0.0000,  0.0000)
  42 O      9.861551    3.822345    7.505914    ( 0.0000,  0.0000,  0.0000)
  43 O      4.690678    5.733518    7.505914    ( 0.0000,  0.0000,  0.0000)
  44 O      7.629303    5.733518    8.393834    ( 0.0000,  0.0000,  0.0000)
  45 O      2.458430    3.822345    8.393834    ( 0.0000,  0.0000,  0.0000)
  46 O      6.244323    3.822345    6.887921    ( 0.0000,  0.0000,  0.0000)
  47 O      1.073450    5.733518    6.887921    ( 0.0000,  0.0000,  0.0000)
  48 O      9.802341    5.744789    9.627386    ( 0.0000,  0.0000,  0.0000)
  49 O      4.627722    3.845811    9.604322    ( 0.0000,  0.0000,  0.0000)
  50 Ti     2.737420    3.843646   10.343398    ( 0.0000,  0.0000,  0.0000)
  51 Ti     8.027126    5.760354   10.379410    ( 0.0000,  0.0000,  0.0000)
  52 Ti     0.533213    5.761205   11.322405    ( 0.0000,  0.0000,  0.0000)
  53 Ti     5.716476    3.856255   11.126413    ( 0.0000,  0.0000,  0.0000)
  54 O      0.924655    3.833779   11.093035    ( 0.0000,  0.0000,  0.0000)
  55 O      6.089286    5.750526   11.107589    ( 0.0000,  0.0000,  0.0000)
  56 O      9.036946    5.757684   12.010773    ( 0.0000,  0.0000,  0.0000)
  57 O      3.859915    3.803105   11.968816    ( 0.0000,  0.0000,  0.0000)
  58 O      7.576048    3.844302   10.498695    ( 0.0000,  0.0000,  0.0000)
  59 O      2.417160    5.744939   10.518667    ( 0.0000,  0.0000,  0.0000)
  60 O      0.906226    5.748000   13.202309    ( 0.0000,  0.0000,  0.0000)
  61 O      6.068626    3.811046   13.137742    ( 0.0000,  0.0000,  0.0000)
  62 Ti     4.076910    3.871120   13.847763    ( 0.0000,  0.0000,  0.0000)
  63 Ti     9.467740    5.746793   14.060210    ( 0.0000,  0.0000,  0.0000)
  64 Ti     1.931981    5.787985   15.023935    ( 0.0000,  0.0000,  0.0000)
  65 Ti     7.036689    3.869442   14.625238    ( 0.0000,  0.0000,  0.0000)
  66 O      2.342458    3.798547   14.682984    ( 0.0000,  0.0000,  0.0000)
  67 O      7.515603    5.721744   14.804672    ( 0.0000,  0.0000,  0.0000)
  68 O      0.187468    5.763178   15.574191    ( 0.0000,  0.0000,  0.0000)
  69 O      5.307004    4.003070   15.578920    ( 0.0000,  0.0000,  0.0000)
  70 O      8.962412    3.848173   14.090024    ( 0.0000,  0.0000,  0.0000)
  71 O      3.791337    5.760635   13.946533    ( 0.0000,  0.0000,  0.0000)
  72 O      8.476572    9.555862    6.000000    ( 0.0000,  0.0000,  0.0000)
  73 O      3.305699    7.644690    6.000000    ( 0.0000,  0.0000,  0.0000)
  74 Ti     1.412752    7.644690    6.752957    ( 0.0000,  0.0000,  0.0000)
  75 Ti     6.583625    9.555862    6.752957    ( 0.0000,  0.0000,  0.0000)
  76 Ti     9.522250    9.555862    7.640878    ( 0.0000,  0.0000,  0.0000)
  77 Ti     4.351376    7.644690    7.640878    ( 0.0000,  0.0000,  0.0000)
  78 O      9.861551    7.644690    7.505914    ( 0.0000,  0.0000,  0.0000)
  79 O      4.690678    9.555862    7.505914    ( 0.0000,  0.0000,  0.0000)
  80 O      7.629303    9.555862    8.393834    ( 0.0000,  0.0000,  0.0000)
  81 O      2.458430    7.644690    8.393834    ( 0.0000,  0.0000,  0.0000)
  82 O      6.244323    7.644690    6.887921    ( 0.0000,  0.0000,  0.0000)
  83 O      1.073450    9.555862    6.887921    ( 0.0000,  0.0000,  0.0000)
  84 O      9.796705    9.556949    9.604046    ( 0.0000,  0.0000,  0.0000)
  85 O      4.632056    7.649517    9.633980    ( 0.0000,  0.0000,  0.0000)
  86 Ti     2.798290    7.654379   10.341495    ( 0.0000,  0.0000,  0.0000)
  87 Ti     7.955609    9.576530   10.398016    ( 0.0000,  0.0000,  0.0000)
  88 Ti     0.509484    9.552135   11.157976    ( 0.0000,  0.0000,  0.0000)
  89 Ti     5.720526    7.644942   11.259551    ( 0.0000,  0.0000,  0.0000)
  90 O      0.924111    7.654924   11.091606    ( 0.0000,  0.0000,  0.0000)
  91 O      6.100911    9.573240   11.103764    ( 0.0000,  0.0000,  0.0000)
  92 O      9.049591    9.583962   11.988828    ( 0.0000,  0.0000,  0.0000)
  93 O      3.844427    7.709402   11.994285    ( 0.0000,  0.0000,  0.0000)
  94 O      7.573777    7.657992   10.519643    ( 0.0000,  0.0000,  0.0000)
  95 O      2.400657    9.562638   10.486478    ( 0.0000,  0.0000,  0.0000)
  96 O      0.929483    9.593792   13.114376    ( 0.0000,  0.0000,  0.0000)
  97 O      6.027330    7.660615   13.227839    ( 0.0000,  0.0000,  0.0000)
  98 Ti     4.165137    7.666498   13.890693    ( 0.0000,  0.0000,  0.0000)
  99 Ti     9.389057    9.635596   14.035973    ( 0.0000,  0.0000,  0.0000)
 100 Ti     1.846921    9.578608   14.653052    ( 0.0000,  0.0000,  0.0000)
 101 Ti     7.200835    7.674687   14.839080    ( 0.0000,  0.0000,  0.0000)
 102 O      2.347337    7.690958   14.835342    ( 0.0000,  0.0000,  0.0000)
 103 O      7.527570    9.628396   14.722492    ( 0.0000,  0.0000,  0.0000)
 104 O      0.207505    9.612274   15.482521    ( 0.0000,  0.0000,  0.0000)
 105 O      5.210564    7.620902   15.602607    ( 0.0000,  0.0000,  0.0000)
 106 O      8.982727    7.667763   14.103851    ( 0.0000,  0.0000,  0.0000)
 107 O      3.824577    9.578341   14.079297    ( 0.0000,  0.0000,  0.0000)
 108 V      5.826000    7.493283   17.280590    ( 0.0000,  0.0000,  0.0000)
 109 V      4.398499    4.677491   17.074620    ( 0.0000,  0.0000,  0.0000)
 110 O      7.473388    7.704925   16.739548    ( 0.0000,  0.0000,  0.0000)
 111 O      4.043794    3.464998   18.041693    ( 0.0000,  0.0000,  0.0000)
 112 O      5.473258    5.819041   17.905638    ( 0.0000,  0.0000,  0.0000)
 113 O      5.326491    8.649510   18.256196    ( 0.0000,  0.0000,  0.0000)
 114 O      2.928216    5.521457   16.618198    ( 0.0000,  0.0000,  0.0000)

Unit cell:
           periodic     x           y           z      points  spacing
  1. axis:    yes   10.341746    0.000000    0.000000    54     0.1915
  2. axis:    yes   -0.000000   11.467000    0.000000    60     0.1911
  3. axis:    no     0.000000    0.000000   23.497201   125     0.1880

  Lengths:  10.341746  11.467000  23.497201
  Angles:   90.000000  90.000000  90.000000

Effective grid spacing dv^(1/3) = 0.1902

                     log10-error:    total        iterations:
           time      wfs    density  energy       fermi  poisson
iter:   1  22:16:14  -6.10   +inf  -956.196010    1             
iter:   2  22:17:09  -7.17  -4.76  -956.196002    1             
iter:   3  22:18:04  -6.12  -4.80  -956.195999    1             
iter:   4  22:18:58  -7.26  -4.97  -956.195990    1             
iter:   5  22:19:53  -7.94  -5.10  -956.195991    1             

Converged after 5 iterations.

Dipole moment: (-17.278104, -27.675542, -1.521856) |e|*Ang

Energy contributions relative to reference atoms: (reference = -1044851.132452)

Kinetic:       +668.771491
Potential:     -861.915044
External:        +0.000000
XC:            -770.773111
Entropy (-ST):   -0.000484
Local:           +7.720917
--------------------------
Free energy:   -956.196233
Extrapolated:  -956.195991

Fermi level: -0.77225

Showing only first 2 kpts
 Kpt  Band  Eigenvalues  Occupancy
  0   458     -1.84513    0.22222
  0   459     -1.84155    0.22222
  0   460      0.08049    0.00004
  0   461      0.23675    0.00001

  1   458     -1.86252    0.44444
  1   459     -1.83117    0.44443
  1   460      0.27356    0.00001
  1   461      0.37514    0.00000



Forces in eV/Ang:
  0 O    -1.82576    0.00454    1.58759
  1 O    -1.84733    0.00387    1.58064
  2 Ti    3.87259   -0.01195    2.00955
  3 Ti    3.88511   -0.02118    2.00775
  4 Ti   -2.03927   -0.02722   -1.89490
  5 Ti   -1.95987   -0.01204   -1.89332
  6 O     0.88781    0.01326   -0.15920
  7 O     0.83759    0.07498   -0.14329
  8 O    -0.62334    0.02660   -0.52780
  9 O    -0.64152    0.01999   -0.55315
 10 O    -0.29385   -0.00513   -0.89229
 11 O    -0.24054    0.10982   -0.89309
 12 O     0.00006   -0.00015   -0.00534
 13 O     0.00108   -0.00008   -0.00597
 14 Ti   -0.00306   -0.00361    0.00032
 15 Ti   -0.00559    0.00061    0.00481
 16 Ti    0.00506    0.00297   -0.00490
 17 Ti    0.00284    0.00130   -0.00047
 18 O     0.00181    0.00123   -0.00044
 19 O     0.00047    0.00193   -0.00317
 20 O     0.00056   -0.00075    0.00079
 21 O     0.00532   -0.00331    0.00486
 22 O     0.00048   -0.00123    0.00003
 23 O    -0.00300   -0.00009    0.00017
 24 O     0.00307   -0.00545    0.01105
 25 O     0.00102    0.00071    0.00115
 26 Ti    0.00054   -0.00493    0.00133
 27 Ti    0.00579   -0.00940    0.00300
 28 Ti   -0.00202   -0.00749   -0.00569
 29 Ti   -0.00441    0.00282   -0.00630
 30 O     0.00055   -0.00205   -0.00022
 31 O    -0.00337    0.00384    0.00308
 32 O    -0.00297   -0.00251   -0.00707
 33 O    -0.00163    0.00173   -0.00232
 34 O    -0.00132    0.00139    0.00089
 35 O     0.00026    0.01013   -0.00238
 36 O    -1.84072   -0.00055    1.56068
 37 O    -1.91625    0.00760    1.62770
 38 Ti    3.59847   -0.03414    1.73939
 39 Ti    3.91140    0.01514    1.99892
 40 Ti   -1.94649    0.01340   -1.44145
 41 Ti   -1.60711   -0.01215   -1.92093
 42 O     0.95202   -0.00116   -0.18296
 43 O     0.81549    0.00949   -0.17096
 44 O    -0.68770    0.03639   -0.59300
 45 O    -0.68725    0.02301   -0.49193
 46 O    -0.34538    0.00618   -0.88054
 47 O    -0.21041   -0.02396   -0.89253
 48 O     0.00001   -0.00072    0.00123
 49 O    -0.00273    0.00035   -0.00288
 50 Ti    0.00038    0.00012   -0.00499
 51 Ti   -0.00684   -0.00392    0.00185
 52 Ti    0.00761    0.00028   -0.00643
 53 Ti   -0.00130   -0.00021   -0.00093
 54 O     0.00015   -0.00480   -0.00178
 55 O     0.00134   -0.00108   -0.00341
 56 O     0.00109   -0.00075    0.00926
 57 O     0.00039   -0.00073    0.00635
 58 O    -0.00238    0.00473    0.00209
 59 O    -0.00477   -0.00116    0.00265
 60 O    -0.00158   -0.00501   -0.00208
 61 O     0.01324   -0.00169    0.01338
 62 Ti   -0.00306   -0.00161   -0.00898
 63 Ti    0.00177   -0.00894   -0.00031
 64 Ti   -0.00940    0.00120   -0.00061
 65 Ti   -0.00427    0.00802   -0.02204
 66 O     0.00386   -0.00467    0.00191
 67 O    -0.00071   -0.00869   -0.00564
 68 O     0.00419   -0.00256   -0.00554
 69 O     0.00271   -0.00356    0.00818
 70 O    -0.00039    0.01273   -0.00056
 71 O     0.00241   -0.00407   -0.00430
 72 O    -1.84379   -0.00262    1.58712
 73 O    -1.87281   -0.00444    1.61957
 74 Ti    3.65989    0.05063    1.80926
 75 Ti    3.85174    0.01432    1.98079
 76 Ti   -1.98459    0.00627   -1.88976
 77 Ti   -1.61849    0.01810   -1.56019
 78 O     0.93999    0.01425   -0.19697
 79 O     0.84446   -0.03163   -0.14927
 80 O    -0.64616    0.01178   -0.50678
 81 O    -0.66725   -0.00649   -0.51880
 82 O    -0.33355   -0.00115   -0.85474
 83 O    -0.24852   -0.08529   -0.89401
 84 O     0.00400   -0.00133   -0.00311
 85 O     0.00683   -0.00209   -0.00300
 86 Ti    0.00260   -0.00039   -0.00319
 87 Ti   -0.01142   -0.00018    0.00592
 88 Ti    0.01017   -0.00064    0.00096
 89 Ti   -0.00318    0.00373   -0.00510
 90 O     0.00399   -0.00476   -0.00117
 91 O     0.00253    0.00252   -0.00163
 92 O    -0.00204   -0.00114    0.01318
 93 O     0.00711   -0.00103    0.00616
 94 O    -0.00091    0.00106    0.00231
 95 O    -0.00493   -0.00133    0.00276
 96 O     0.00547   -0.00524   -0.00478
 97 O     0.00039   -0.00124   -0.00124
 98 Ti   -0.00667    0.01597   -0.00578
 99 Ti    0.00315   -0.01044    0.00047
100 Ti   -0.00930   -0.00085    0.00104
101 Ti   -0.00076    0.01317   -0.00399
102 O     0.00054   -0.00225   -0.00051
103 O    -0.00351   -0.00568    0.00082
104 O    -0.00259   -0.00359   -0.00130
105 O     0.00860    0.00150    0.00794
106 O    -0.00147    0.00301   -0.00352
107 O     0.00305   -0.00179   -0.00341
108 V     0.00986   -0.00344   -0.01857
109 V    -0.01262    0.00373   -0.00165
110 O    -0.02024   -0.01793    0.00515
111 O     0.00121   -0.01944    0.00463
112 O    -0.00259   -0.01186   -0.00454
113 O     0.00685   -0.00726    0.00399
114 O     0.01535   -0.01251    0.00827

Timing:                                      incl.     excl.
-------------------------------------------------------------------
Density initialized from wave functions:   273.273   273.271   0.3% |
 Symmetrize density:                         0.002     0.002   0.0% |
Forces:                                   1830.567  1830.567   2.0% ||
Hamiltonian:                                98.568     1.920   0.0% |
 Atomic:                                    26.621     0.206   0.0% |
  XC Correction:                            26.415    26.415   0.0% |
 Calculate atomic Hamiltonians:             48.906    48.906   0.1% |
 Communicate:                                5.127     5.127   0.0% |
 Initialize Hamiltonian:                     0.000     0.000   0.0% |
 Poisson:                                    0.109     0.109   0.0% |
 XC 3D grid:                                15.884    15.884   0.0% |
LCAO initialization:                       187.415     1.612   0.0% |
 LCAO eigensolver:                          64.301     0.096   0.0% |
  Calculate projections:                     0.000     0.000   0.0% |
  DenseAtomicCorrection:                     0.001     0.001   0.0% |
  Distribute overlap matrix:                 5.144     5.144   0.0% |
  Orbital Layouts:                          52.885    52.885   0.1% |
  Potential matrix:                          0.035     0.035   0.0% |
  Sum over cells:                            6.139     6.139   0.0% |
 LCAO to grid:                             115.875   115.875   0.1% |
 Set positions (LCAO WFS):                   5.627     4.690   0.0% |
  Basic WFS set positions:                   0.003     0.003   0.0% |
  Basis functions set positions:             0.001     0.001   0.0% |
  P tci:                                     0.033     0.033   0.0% |
  ST tci:                                    0.627     0.627   0.0% |
  mktci:                                     0.273     0.273   0.0% |
PWDescriptor:                                0.189     0.189   0.0% |
Redistribute:                                0.193     0.193   0.0% |
SCF-cycle:                               87959.392     2.346   0.0% |
 Davidson:                               83650.123 19919.997  21.9% |--------|
  Apply H:                               12029.002 11560.253  12.7% |----|
   HMM T:                                  468.749   468.749   0.5% |
  Subspace diag:                          9306.076     1.091   0.0% |
   calc_h_matrix:                         5449.694  1449.652   1.6% ||
    Apply H:                              4000.042  3830.371   4.2% |-|
     HMM T:                                169.671   169.671   0.2% |
   diagonalize:                           1156.145  1156.145   1.3% ||
   rotate_psi:                            2699.145  2699.145   3.0% ||
  calc. matrices:                        18731.467 10809.785  11.9% |----|
   Apply H:                               7921.683  7633.750   8.4% |--|
    HMM T:                                 287.933   287.933   0.3% |
  diagonalize:                           17941.403 17941.403  19.7% |-------|
  rotate_psi:                             5722.178  5722.178   6.3% |--|
 Density:                                 2664.994     0.040   0.0% |
  Atomic density matrices:                  18.186    18.186   0.0% |
  Mix:                                     549.050   549.050   0.6% |
  Multipole moments:                         0.525     0.525   0.0% |
  Pseudo density:                         2097.193  2097.166   2.3% ||
   Symmetrize density:                       0.027     0.027   0.0% |
 Hamiltonian:                              951.157    18.544   0.0% |
  Atomic:                                  256.053     1.776   0.0% |
   XC Correction:                          254.277   254.277   0.3% |
  Calculate atomic Hamiltonians:           470.841   470.841   0.5% |
  Communicate:                              50.990    50.990   0.1% |
  Poisson:                                   1.003     1.003   0.0% |
  XC 3D grid:                              153.727   153.727   0.2% |
 Orthonormalize:                           690.772     0.158   0.0% |
  calc_s_matrix:                            66.494    66.494   0.1% |
  inverse-cholesky:                         57.229    57.229   0.1% |
  projections:                             442.014   442.014   0.5% |
  rotate_psi_s:                            124.876   124.876   0.1% |
Set symmetry:                                0.001     0.001   0.0% |
Other:                                     513.833   513.833   0.6% |
-------------------------------------------------------------------
Total:                                             90863.432 100.0%

Memory usage: 1.33 GiB
Date: Sat May 25 22:20:05 2019
