
  ___ ___ ___ _ _ _  
 |   |   |_  | | | | 
 | | | | | . | | | | 
 |__ |  _|___|_____|  1.5.1
 |___|_|             

User:   siva@s85n32.grendel.cscaa.dk
Date:   Sat May 25 03:07:33 2019
Arch:   x86_64
Pid:    25221
Python: 3.6.3
gpaw:   /home/siva/gpaw-1.5.1/gpaw
_gpaw:  /home/siva/gpaw-1.5.1/build/bin.linux-x86_64-3.6/gpaw-python
ase:    /home/siva/env1.5/lib/python3.6/site-packages/ase (version 3.17.0)
numpy:  /home/siva/env1.5/lib/python3.6/site-packages/numpy (version 1.16.0)
scipy:  /home/siva/env1.5/lib/python3.6/site-packages/scipy (version 1.2.0)
units:  Angstrom and eV
cores:  28
Extra parameters: {'blacs': True}

Input parameters:
  basis: dzp
  kpts: [3 3 1]
  mode: {ecut: 500.0,
         gammacentered: False,
         name: pw}
  xc: PBE

System changes: positions, numbers, cell, pbc, initial_charges, initial_magmoms 

Initialize ...

O-setup:
  name: Oxygen
  id: 32ecd46bf208036f09c70b0ec9a88b78
  Z: 8
  valence: 6
  core: 2
  charge: 0.0
  file: /home/wido/sw/gpaw/basis/gpaw-setups-0.9.20000/O.PBE.gz
  cutoffs: 0.67(comp), 1.17(filt), 0.83(core), lmax=2
  valence states:
                energy  radius
    2s(2.00)   -23.961   0.688
    2p(4.00)    -9.029   0.598
    *s           3.251   0.688
    *p          18.182   0.598
    *d           0.000   0.619

  LCAO basis set for O:
    Name: dzp
    File: /home/wido/sw/gpaw/basis/gpaw-setups-0.9.20000/O.dzp.basis.gz
    Number of radial functions: 5
    Number of spherical harmonics: 13
      l=0, rc=4.3438 Bohr: 2s-sz confined orbital
      l=1, rc=5.3906 Bohr: 2p-sz confined orbital
      l=0, rc=2.2969 Bohr: 2s-dz split-valence wave
      l=1, rc=2.8906 Bohr: 2p-dz split-valence wave
      l=2, rc=5.3906 Bohr: d-type Gaussian polarization

Ti-setup:
  name: Titanium
  id: d282db07e62ae71292040bf25b25ccdd
  Z: 22
  valence: 12
  core: 10
  charge: 0.0
  file: /home/wido/sw/gpaw/basis/gpaw-setups-0.9.20000/Ti.PBE.gz
  cutoffs: 1.22(comp), 2.23(filt), 1.02(core), lmax=2
  valence states:
                energy  radius
    3s(2.00)   -62.623   1.270
    4s(2.00)    -4.466   1.270
    3p(6.00)   -38.862   1.058
    4p(0.00)    -1.466   1.058
    3d(2.00)    -4.258   1.058
    *d          22.953   1.058

  LCAO basis set for Ti:
    Name: dzp
    File: /home/wido/sw/gpaw/basis/gpaw-setups-0.9.20000/Ti.dzp.basis.gz
    Number of radial functions: 11
    Number of spherical harmonics: 29
      l=0, rc=3.4375 Bohr: 3s-sz confined orbital
      l=0, rc=9.9062 Bohr: 4s-sz confined orbital
      l=1, rc=3.8906 Bohr: 3p-sz confined orbital
      l=1, rc=13.1094 Bohr: 4p-sz confined orbital
      l=2, rc=6.6250 Bohr: 3d-sz confined orbital
      l=0, rc=2.1406 Bohr: 3s-dz split-valence wave
      l=0, rc=6.0156 Bohr: 4s-dz split-valence wave
      l=1, rc=2.3125 Bohr: 3p-dz split-valence wave
      l=1, rc=8.1094 Bohr: 4p-dz split-valence wave
      l=2, rc=3.8594 Bohr: 3d-dz split-valence wave
      l=1, rc=9.9062 Bohr: p-type Gaussian polarization

V-setup:
  name: Vanadium
  id: a8354638d66c808f8c867a10b63fd727
  Z: 23
  valence: 13
  core: 10
  charge: 0.0
  file: /home/wido/sw/gpaw/basis/gpaw-setups-0.9.20000/V.PBE.gz
  cutoffs: 1.19(comp), 2.14(filt), 0.96(core), lmax=2
  valence states:
                energy  radius
    3s(2.00)   -70.222   1.254
    4s(2.00)    -4.702   1.254
    3p(6.00)   -44.043   1.281
    4p(0.00)    -1.444   1.281
    3d(3.00)    -5.164   1.169
    *d          22.047   1.169

  LCAO basis set for V:
    Name: dzp
    File: /home/wido/sw/gpaw/basis/gpaw-setups-0.9.20000/V.dzp.basis.gz
    Number of radial functions: 11
    Number of spherical harmonics: 29
      l=0, rc=3.2656 Bohr: 3s-sz confined orbital
      l=0, rc=9.5312 Bohr: 4s-sz confined orbital
      l=1, rc=3.6719 Bohr: 3p-sz confined orbital
      l=1, rc=12.8750 Bohr: 4p-sz confined orbital
      l=2, rc=6.0938 Bohr: 3d-sz confined orbital
      l=0, rc=2.0625 Bohr: 3s-dz split-valence wave
      l=0, rc=5.7656 Bohr: 4s-dz split-valence wave
      l=1, rc=2.4062 Bohr: 3p-dz split-valence wave
      l=1, rc=7.8906 Bohr: 4p-dz split-valence wave
      l=2, rc=3.6562 Bohr: 3d-dz split-valence wave
      l=1, rc=9.5312 Bohr: p-type Gaussian polarization

Reference energy: -1044851.132452

Spin-paired calculation

Occupation numbers:
  Fermi-Dirac: width=0.1000 eV

Convergence criteria:
  Maximum total energy change: 0.0005 eV / electron
  Maximum integral of absolute density change: 0.0001 electrons
  Maximum integral of absolute eigenstate change: 4e-08 eV^2
  Maximum number of iterations: 333

Symmetries present (total): 1

  ( 1  0  0)
  ( 0  1  0)
  ( 0  0  1)

9 k-points: 3 x 3 x 1 Monkhorst-Pack grid
5 k-points in the irreducible part of the Brillouin zone
       k-points in crystal coordinates                weights
   0:     0.00000000    0.00000000    0.00000000          1/9
   1:     0.00000000    0.33333333    0.00000000          2/9
   2:     0.33333333   -0.33333333    0.00000000          2/9
   3:     0.33333333    0.00000000    0.00000000          2/9
   4:     0.33333333    0.33333333    0.00000000          2/9

Wave functions: Plane wave expansion
  Cutoff energy: 500.000 eV
  Number of coefficients (min, max): 70673, 70768
  Pulay-stress correction: 0.000000 eV/Ang^3 (de/decut=0.000000)
  Using FFTW library
  ScaLapack parameters: grid=1x1, blocksize=None
  Wavefunction extrapolation:
    Improved wavefunction reuse through dual PAW basis 

Eigensolver
   Davidson(niter=2, smin=None, normalize=True) 

Densities:
  Coarse grid: 54*60*125 grid
  Fine grid: 108*120*250 grid
  Total Charge: 0.000000 

Density mixing:
  Method: separate
  Backend: pulay
  Linear mixing parameter: 0.05
  Mixing with 5 old densities
  Damping of long wave oscillations: 50 

Hamiltonian:
  XC and Coulomb potentials evaluated on a 108*120*250 grid
  Using the PBE Exchange-Correlation functional
 

XC parameters: PBE with 2 nearest neighbor stencil

Memory estimate:
  Process memory now: 274.48 MiB
  Calculator: 3687.11 MiB
    Density: 8.19 MiB
      Arrays: 2.89 MiB
      Localized functions: 4.19 MiB
      Mixer: 1.11 MiB
    Hamiltonian: 2.00 MiB
      Arrays: 1.89 MiB
      XC: 0.00 MiB
      Poisson: 0.00 MiB
      vbar: 0.11 MiB
    Wavefunctions: 3676.92 MiB
      Arrays psit_nG: 3001.94 MiB
      Eigensolver: 652.97 MiB
      Projections: 2.55 MiB
      Projectors: 2.51 MiB
      PW-descriptor: 16.94 MiB

Total number of cores used: 28
Domain decomposition: 2 x 2 x 7

Number of atoms: 115
Number of atomic orbitals: 2103
Number of bands in calculation: 556
Bands to converge: occupied states only
Number of valence electrons: 920

... initialized

Initializing position-dependent things.

Density initialized from atomic densities
Creating initial wave functions:
  556 bands from LCAO basis set

                                                
                                                
                                                
                                                
                                                
                                                
                         O                      
                          V O                   
             O          O     O                 
                  Ti O   Oi     O               
                  O    OV   OOTi     Ti         
           O   O                  O             
               Ti     Oi   O O                  
         O     O    OTi    Ti    OTi            
             Tii    Ti    OOO   O               
             OO   OO    O Ti    Tii             
          O Ti     Oi   TiO  O O     O          
            O   O      Ti     TiO               
                TiO      O  O  O   O Ti         
         Ti   O O    O Oi    Ti     O           
         O     Ti    Ti    OTi    Ti            
             O O    O O         O               
                    Ti     Oi     O             
             Oi     O    O      Ti              
           O     OTi    Ti     O                
          Ti          O      O                  
               O                                
                                                
                                                
                                                
                                                

Positions:
   0 O      8.476572    1.911173    6.000000    ( 0.0000,  0.0000,  0.0000)
   1 O      3.305699    0.000000    6.000000    ( 0.0000,  0.0000,  0.0000)
   2 Ti     1.412752    0.000000    6.752957    ( 0.0000,  0.0000,  0.0000)
   3 Ti     6.583625    1.911173    6.752957    ( 0.0000,  0.0000,  0.0000)
   4 Ti     9.522250    1.911173    7.640878    ( 0.0000,  0.0000,  0.0000)
   5 Ti     4.351376    0.000000    7.640878    ( 0.0000,  0.0000,  0.0000)
   6 O      9.861551    0.000000    7.505914    ( 0.0000,  0.0000,  0.0000)
   7 O      4.690678    1.911173    7.505914    ( 0.0000,  0.0000,  0.0000)
   8 O      7.629303    1.911173    8.393834    ( 0.0000,  0.0000,  0.0000)
   9 O      2.458430    0.000000    8.393834    ( 0.0000,  0.0000,  0.0000)
  10 O      6.244323    0.000000    6.887921    ( 0.0000,  0.0000,  0.0000)
  11 O      1.073450    1.911173    6.887921    ( 0.0000,  0.0000,  0.0000)
  12 O      9.821102    1.911091    9.593715    ( 0.0000,  0.0000,  0.0000)
  13 O      4.640004   11.462914    9.578938    ( 0.0000,  0.0000,  0.0000)
  14 Ti     2.751676   11.468696   10.385956    ( 0.0000,  0.0000,  0.0000)
  15 Ti     7.969562    1.892043   10.377124    ( 0.0000,  0.0000,  0.0000)
  16 Ti     0.503116    1.928261   11.187064    ( 0.0000,  0.0000,  0.0000)
  17 Ti     5.658449    0.002641   11.127557    ( 0.0000,  0.0000,  0.0000)
  18 O      0.916946    0.005019   11.093523    ( 0.0000,  0.0000,  0.0000)
  19 O      6.084682    1.908109   11.082401    ( 0.0000,  0.0000,  0.0000)
  20 O      9.046581    1.915430   11.950956    ( 0.0000,  0.0000,  0.0000)
  21 O      3.862471    0.017598   11.941814    ( 0.0000,  0.0000,  0.0000)
  22 O      7.569752   11.465733   10.448233    ( 0.0000,  0.0000,  0.0000)
  23 O      2.393158    1.923448   10.448931    ( 0.0000,  0.0000,  0.0000)
  24 O      0.961602    1.933978   13.149269    ( 0.0000,  0.0000,  0.0000)
  25 O      6.108031   11.464185   13.058489    ( 0.0000,  0.0000,  0.0000)
  26 Ti     4.179060   11.419425   13.991684    ( 0.0000,  0.0000,  0.0000)
  27 Ti     9.452777    1.863382   14.022914    ( 0.0000,  0.0000,  0.0000)
  28 Ti     1.895730    1.937863   14.749896    ( 0.0000,  0.0000,  0.0000)
  29 Ti     6.990868    0.010326   14.595629    ( 0.0000,  0.0000,  0.0000)
  30 O      2.385574    0.031068   14.773610    ( 0.0000,  0.0000,  0.0000)
  31 O      7.558560    1.864836   14.787784    ( 0.0000,  0.0000,  0.0000)
  32 O      0.207554    1.912418   15.492170    ( 0.0000,  0.0000,  0.0000)
  33 O      5.377291   11.459840   15.438734    ( 0.0000,  0.0000,  0.0000)
  34 O      9.061408    0.009524   13.949288    ( 0.0000,  0.0000,  0.0000)
  35 O      3.847821    1.949073   13.969067    ( 0.0000,  0.0000,  0.0000)
  36 O      8.476572    5.733518    6.000000    ( 0.0000,  0.0000,  0.0000)
  37 O      3.305699    3.822345    6.000000    ( 0.0000,  0.0000,  0.0000)
  38 Ti     1.412752    3.822345    6.752957    ( 0.0000,  0.0000,  0.0000)
  39 Ti     6.583625    5.733518    6.752957    ( 0.0000,  0.0000,  0.0000)
  40 Ti     9.522250    5.733518    7.640878    ( 0.0000,  0.0000,  0.0000)
  41 Ti     4.351376    3.822345    7.640878    ( 0.0000,  0.0000,  0.0000)
  42 O      9.861551    3.822345    7.505914    ( 0.0000,  0.0000,  0.0000)
  43 O      4.690678    5.733518    7.505914    ( 0.0000,  0.0000,  0.0000)
  44 O      7.629303    5.733518    8.393834    ( 0.0000,  0.0000,  0.0000)
  45 O      2.458430    3.822345    8.393834    ( 0.0000,  0.0000,  0.0000)
  46 O      6.244323    3.822345    6.887921    ( 0.0000,  0.0000,  0.0000)
  47 O      1.073450    5.733518    6.887921    ( 0.0000,  0.0000,  0.0000)
  48 O      9.806112    5.735267    9.579741    ( 0.0000,  0.0000,  0.0000)
  49 O      4.646702    3.818263    9.611871    ( 0.0000,  0.0000,  0.0000)
  50 Ti     2.780503    3.812067   10.317642    ( 0.0000,  0.0000,  0.0000)
  51 Ti     7.933508    5.735767   10.393735    ( 0.0000,  0.0000,  0.0000)
  52 Ti     0.516597    5.732005   11.111118    ( 0.0000,  0.0000,  0.0000)
  53 Ti     5.728874    3.807344   11.211049    ( 0.0000,  0.0000,  0.0000)
  54 O      0.906959    3.822832   11.080572    ( 0.0000,  0.0000,  0.0000)
  55 O      6.090685    5.733399   11.111817    ( 0.0000,  0.0000,  0.0000)
  56 O      9.033462    5.735630   11.943058    ( 0.0000,  0.0000,  0.0000)
  57 O      3.839042    3.849398   11.946834    ( 0.0000,  0.0000,  0.0000)
  58 O      7.551834    3.818539   10.458696    ( 0.0000,  0.0000,  0.0000)
  59 O      2.384911    5.737354   10.440032    ( 0.0000,  0.0000,  0.0000)
  60 O      0.925393    5.743851   13.058363    ( 0.0000,  0.0000,  0.0000)
  61 O      6.037647    3.744529   13.202744    ( 0.0000,  0.0000,  0.0000)
  62 Ti     4.154946    3.792713   13.814054    ( 0.0000,  0.0000,  0.0000)
  63 Ti     9.373947    5.732958   13.977739    ( 0.0000,  0.0000,  0.0000)
  64 Ti     1.834706    5.742127   14.591243    ( 0.0000,  0.0000,  0.0000)
  65 Ti     7.201403    3.792309   14.785023    ( 0.0000,  0.0000,  0.0000)
  66 O      2.365523    3.867067   14.793929    ( 0.0000,  0.0000,  0.0000)
  67 O      7.538909    5.734706   14.614660    ( 0.0000,  0.0000,  0.0000)
  68 O      0.196756    5.734839   15.425494    ( 0.0000,  0.0000,  0.0000)
  69 O      5.179380    4.041661   15.509051    ( 0.0000,  0.0000,  0.0000)
  70 O      8.977139    3.803138   13.989509    ( 0.0000,  0.0000,  0.0000)
  71 O      3.803611    5.767962   13.925234    ( 0.0000,  0.0000,  0.0000)
  72 O      8.476572    9.555862    6.000000    ( 0.0000,  0.0000,  0.0000)
  73 O      3.305699    7.644690    6.000000    ( 0.0000,  0.0000,  0.0000)
  74 Ti     1.412752    7.644690    6.752957    ( 0.0000,  0.0000,  0.0000)
  75 Ti     6.583625    9.555862    6.752957    ( 0.0000,  0.0000,  0.0000)
  76 Ti     9.522250    9.555862    7.640878    ( 0.0000,  0.0000,  0.0000)
  77 Ti     4.351376    7.644690    7.640878    ( 0.0000,  0.0000,  0.0000)
  78 O      9.861551    7.644690    7.505914    ( 0.0000,  0.0000,  0.0000)
  79 O      4.690678    9.555862    7.505914    ( 0.0000,  0.0000,  0.0000)
  80 O      7.629303    9.555862    8.393834    ( 0.0000,  0.0000,  0.0000)
  81 O      2.458430    7.644690    8.393834    ( 0.0000,  0.0000,  0.0000)
  82 O      6.244323    7.644690    6.887921    ( 0.0000,  0.0000,  0.0000)
  83 O      1.073450    9.555862    6.887921    ( 0.0000,  0.0000,  0.0000)
  84 O      9.819545    9.559357    9.594717    ( 0.0000,  0.0000,  0.0000)
  85 O      4.650799    7.641369    9.609978    ( 0.0000,  0.0000,  0.0000)
  86 Ti     2.774646    7.656484   10.322818    ( 0.0000,  0.0000,  0.0000)
  87 Ti     7.979067    9.570934   10.372786    ( 0.0000,  0.0000,  0.0000)
  88 Ti     0.510551    9.544239   11.197815    ( 0.0000,  0.0000,  0.0000)
  89 Ti     5.719666    7.672803   11.201872    ( 0.0000,  0.0000,  0.0000)
  90 O      0.910015    7.651812   11.079241    ( 0.0000,  0.0000,  0.0000)
  91 O      6.082760    9.555961   11.086126    ( 0.0000,  0.0000,  0.0000)
  92 O      9.049017    9.555118   11.951633    ( 0.0000,  0.0000,  0.0000)
  93 O      3.843068    7.656068   11.943736    ( 0.0000,  0.0000,  0.0000)
  94 O      7.553583    7.650698   10.458143    ( 0.0000,  0.0000,  0.0000)
  95 O      2.394563    9.554515   10.447026    ( 0.0000,  0.0000,  0.0000)
  96 O      0.970780    9.553755   13.144062    ( 0.0000,  0.0000,  0.0000)
  97 O      6.036914    7.690659   13.213974    ( 0.0000,  0.0000,  0.0000)
  98 Ti     4.181566    7.609429   13.819741    ( 0.0000,  0.0000,  0.0000)
  99 Ti     9.466034    9.626946   14.011284    ( 0.0000,  0.0000,  0.0000)
 100 Ti     1.898344    9.518787   14.774280    ( 0.0000,  0.0000,  0.0000)
 101 Ti     7.228015    7.709089   14.783087    ( 0.0000,  0.0000,  0.0000)
 102 O      2.359846    7.641412   14.808166    ( 0.0000,  0.0000,  0.0000)
 103 O      7.561460    9.619740   14.784752    ( 0.0000,  0.0000,  0.0000)
 104 O      0.209228    9.590028   15.482890    ( 0.0000,  0.0000,  0.0000)
 105 O      5.178636    7.585044   15.555089    ( 0.0000,  0.0000,  0.0000)
 106 O      8.984936    7.676924   13.993809    ( 0.0000,  0.0000,  0.0000)
 107 O      3.845536    9.562809   13.947424    ( 0.0000,  0.0000,  0.0000)
 108 V      5.700818    4.139036   17.182230    ( 0.0000,  0.0000,  0.0000)
 109 V      5.765691    7.438035   17.198122    ( 0.0000,  0.0000,  0.0000)
 110 O      5.395502    5.786928   17.852667    ( 0.0000,  0.0000,  0.0000)
 111 O      7.360465    3.820867   16.733875    ( 0.0000,  0.0000,  0.0000)
 112 O      5.130387    8.664253   18.060333    ( 0.0000,  0.0000,  0.0000)
 113 O      4.947305    2.978915   18.047796    ( 0.0000,  0.0000,  0.0000)
 114 O      7.435273    7.643272   16.718484    ( 0.0000,  0.0000,  0.0000)

Unit cell:
           periodic     x           y           z      points  spacing
  1. axis:    yes   10.341746    0.000000    0.000000    54     0.1915
  2. axis:    yes   -0.000000   11.467000    0.000000    60     0.1911
  3. axis:    no     0.000000    0.000000   23.497201   125     0.1880

  Lengths:  10.341746  11.467000  23.497201
  Angles:   90.000000  90.000000  90.000000

Effective grid spacing dv^(1/3) = 0.1902

                     log10-error:    total        iterations:
           time      wfs    density  energy       fermi  poisson
iter:   1  03:11:41  -0.12   +inf  -1092.613398    8             
iter:   2  03:12:35  -1.02  -0.96  -1045.287918    2             
iter:   3  03:13:30  +0.45  -1.01  -950.241918    6             
iter:   4  03:14:24  -0.98  -1.35  -963.697453    3             
iter:   5  03:15:19  -1.13  -1.28  -980.148326    2             
iter:   6  03:16:13  -0.12  -1.25  -969.830889    33            
iter:   7  03:17:08  -0.63  -1.65  -968.803731    4             
iter:   8  03:18:03  -1.94  -1.63  -962.985542    3             
iter:   9  03:18:57  -0.86  -1.70  -955.065151    3             
iter:  10  03:19:52  -1.69  -2.04  -955.712284    3             
iter:  11  03:20:46  -2.42  -2.18  -956.232100    3             
iter:  12  03:21:41  -1.52  -2.19  -955.824964    3             
iter:  13  03:22:35  -2.15  -2.32  -955.470235    4             
iter:  14  03:23:30  -2.43  -2.49  -955.520862    2             
iter:  15  03:24:25  -2.96  -2.58  -955.413216    2             
iter:  16  03:25:19  -3.27  -2.69  -955.413309    2             
iter:  17  03:26:14  -2.78  -2.71  -955.469822    2             
iter:  18  03:27:09  -2.71  -2.76  -955.429964    2             
iter:  19  03:28:03  -3.43  -2.99  -955.427457    2             
iter:  20  03:28:58  -3.63  -2.95  -955.407751    2             
iter:  21  03:29:52  -3.90  -3.11  -955.417539    2             
iter:  22  03:30:47  -3.62  -3.10  -955.409760    2             
iter:  23  03:31:42  -4.03  -3.50  -955.411775    1             
iter:  24  03:32:36  -4.72  -3.50  -955.408736    2             
iter:  25  03:33:31  -5.18  -3.65  -955.408436    1             
iter:  26  03:34:26  -5.58  -3.71  -955.408300    1             
iter:  27  03:35:20  -5.78  -3.75  -955.408174    2             
iter:  28  03:36:15  -5.35  -3.76  -955.408112    1             
iter:  29  03:37:09  -6.07  -3.82  -955.408126    1             
iter:  30  03:38:04  -6.33  -3.83  -955.408116    1             
iter:  31  03:38:59  -5.79  -3.84  -955.408234    1             
iter:  32  03:39:53  -6.54  -4.12  -955.408235    1             
iter:  33  03:40:48  -6.39  -4.35  -955.408199    1             
iter:  34  03:41:42  -6.74  -4.56  -955.408192    1             
iter:  35  03:42:37  -6.44  -4.76  -955.408195    1             
iter:  36  03:43:32  -7.60  -4.98  -955.408193    1             

Converged after 36 iterations.

Dipole moment: (-16.685069, -2.937785, -1.773387) |e|*Ang

Energy contributions relative to reference atoms: (reference = -1044851.132452)

Kinetic:       +678.438047
Potential:     -868.996336
External:        +0.000000
XC:            -772.588554
Entropy (-ST):   -0.000793
Local:           +7.739045
--------------------------
Free energy:   -955.408589
Extrapolated:  -955.408193

Fermi level: -0.79749

Showing only first 2 kpts
 Kpt  Band  Eigenvalues  Occupancy
  0   458     -1.88555    0.22222
  0   459     -1.74124    0.22220
  0   460      0.00656    0.00007
  0   461      0.14092    0.00002

  1   458     -1.87726    0.44444
  1   459     -1.73910    0.44441
  1   460      0.20318    0.00002
  1   461      0.27420    0.00001



Forces in eV/Ang:
  0 O    -1.87696    0.00497    1.57896
  1 O    -1.93352   -0.00135    1.56105
  2 Ti    3.84538   -0.00023    1.92703
  3 Ti    3.82587   -0.00999    1.92568
  4 Ti   -1.90933   -0.03021   -1.91592
  5 Ti   -1.87157    0.00124   -2.01315
  6 O     0.88621    0.00255   -0.19458
  7 O     0.85296    0.05984   -0.19347
  8 O    -0.57708    0.00537   -0.54832
  9 O    -0.67602    0.01455   -0.56666
 10 O    -0.27147   -0.00356   -0.85114
 11 O    -0.23639    0.10539   -0.91458
 12 O    -0.10276   -0.00800    0.11659
 13 O    -0.21602    0.00231    0.03331
 14 Ti    0.07619    0.02608   -0.21112
 15 Ti   -0.10898    0.07581   -0.14391
 16 Ti    0.01163    0.05123   -0.24033
 17 Ti    0.15713    0.01469    0.06387
 18 O     0.12864   -0.02374    0.02150
 19 O     0.20629   -0.06711   -0.10040
 20 O     0.17044   -0.01199    0.25369
 21 O    -0.03162   -0.01288    0.14108
 22 O     0.02017   -0.01343    0.08969
 23 O    -0.02592   -0.06555    0.12295
 24 O     0.20032   -0.02319    0.40866
 25 O    -0.21596   -0.00043   -0.08239
 26 Ti    0.64943    0.28277   -0.09543
 27 Ti   -0.49682    0.27022   -0.12346
 28 Ti   -0.66096    0.35558   -1.38904
 29 Ti    0.13515    0.04116    0.19261
 30 O    -0.08062   -0.36054    0.74820
 31 O     0.25150   -0.17449   -0.13340
 32 O     0.58224   -0.04146    0.38076
 33 O    -0.16951   -0.01142   -0.21710
 34 O     0.00977   -0.07724    0.10132
 35 O    -0.48213   -0.35378    0.36122
 36 O    -1.89135    0.00031    1.56786
 37 O    -1.94700    0.00360    1.61546
 38 Ti    3.62396   -0.06121    1.68985
 39 Ti    3.87826   -0.00180    1.96398
 40 Ti   -2.02304   -0.00061   -2.02101
 41 Ti   -1.48438   -0.02620   -1.70224
 42 O     0.95425   -0.00004   -0.20610
 43 O     0.81173   -0.00410   -0.18139
 44 O    -0.65136    0.00157   -0.64938
 45 O    -0.67397    0.01780   -0.65128
 46 O    -0.33323   -0.00751   -0.87185
 47 O    -0.19626   -0.00284   -0.83799
 48 O    -0.14014    0.00490    0.04188
 49 O    -0.18020   -0.00461   -0.00562
 50 Ti    0.04200    0.06465    0.00239
 51 Ti    0.00002   -0.01268   -0.11192
 52 Ti   -0.03096   -0.00564    0.06885
 53 Ti    0.00825    0.05565    0.19872
 54 O     0.16602   -0.02886   -0.07134
 55 O     0.18119    0.02487    0.00769
 56 O     0.09138    0.00789    0.01785
 57 O    -0.02893    0.00092   -0.08854
 58 O     0.04946   -0.03261    0.10817
 59 O     0.01351    0.00310   -0.00286
 60 O    -0.00911    0.01272   -0.01355
 61 O    -0.15848   -0.01972   -0.44672
 62 Ti    0.49123    0.32277    0.45332
 63 Ti   -0.19515   -0.03575   -0.07619
 64 Ti    0.03511   -0.04541    0.08531
 65 Ti   -0.36222    0.17495    0.73159
 66 O    -0.09406   -0.52999    0.27000
 67 O     0.08397    0.08230    0.17248
 68 O     0.09333    0.03061   -0.01884
 69 O    -0.05407   -0.10716   -0.68942
 70 O     0.12404   -0.14903    0.13731
 71 O    -0.37370   -0.08648   -0.01409
 72 O    -1.88081   -0.00438    1.57767
 73 O    -1.94150   -0.00573    1.61648
 74 Ti    3.62942    0.06395    1.70188
 75 Ti    3.82194    0.01182    1.91571
 76 Ti   -1.88908    0.03112   -1.90144
 77 Ti   -1.50696    0.02234   -1.73332
 78 O     0.95207    0.00533   -0.20600
 79 O     0.85462   -0.07123   -0.19353
 80 O    -0.58752   -0.00739   -0.55119
 81 O    -0.64965    0.00719   -0.62358
 82 O    -0.33046    0.01127   -0.86665
 83 O    -0.23960   -0.10216   -0.91571
 84 O    -0.07105    0.00713    0.14880
 85 O    -0.19982    0.00520   -0.01857
 86 Ti    0.06374   -0.06425   -0.02236
 87 Ti   -0.15353   -0.05131   -0.16084
 88 Ti    0.00309   -0.03600   -0.36213
 89 Ti    0.03846   -0.07891    0.17659
 90 O     0.16294    0.04567   -0.06270
 91 O     0.21844    0.09664   -0.08938
 92 O     0.19549    0.02265    0.30551
 93 O    -0.03508    0.04565   -0.05356
 94 O     0.04238    0.04597    0.09960
 95 O    -0.04506    0.04057    0.13126
 96 O     0.22432   -0.03055    0.66684
 97 O    -0.12359    0.03679   -0.43275
 98 Ti    0.46005   -0.20852    0.46555
 99 Ti   -0.68045   -0.18230   -0.28385
100 Ti   -0.59841    0.00945   -1.73333
101 Ti   -0.36360   -0.25794    0.66233
102 O    -0.10560    0.50492    0.32914
103 O     0.30715    0.16737   -0.16457
104 O     0.63488    0.00938    0.59073
105 O     0.00138    0.00401   -0.77258
106 O     0.14435    0.20438    0.13258
107 O    -0.59435    0.05989    0.45142
108 V    -0.84323   -0.75826    1.23230
109 V    -0.69889    0.67857    1.13179
110 O     0.01627    0.14118    0.07811
111 O     0.28604   -0.09689   -0.51840
112 O     0.64524   -0.97104   -0.34290
113 O     0.81578    0.90689   -0.53260
114 O     0.18668    0.07559   -0.53047

System changes: positions 

Initializing position-dependent things.

Density initialized from wave functions
                                                
                                                
                                                
                                                
                                                
                                                
                         O                      
                          V O                   
              O         O     O                 
                  Ti O   Oi     O               
                  O    OV   OOTi     Ti         
           O   O                  O             
               Ti     Oi   O O                  
         O     O    OTi    Ti    OTi            
             Tii   OTi    OOO   O               
             OO   O     TiTi   TiOi             
          O Ti     Oi     O  O O     O          
            O   O      Ti     TiO               
                TiO      O  O  O   O Ti         
         Ti   O O    O Oi    Ti     O           
         O     Ti    Ti    OTi    Ti            
             O O    O O         O               
                    Ti     Oi     O             
             Oi     O    O      Ti              
           O     OTi    Ti     O                
          Ti          O      O                  
               O                                
                                                
                                                
                                                
                                                

Positions:
   0 O      8.476572    1.911173    6.000000    ( 0.0000,  0.0000,  0.0000)
   1 O      3.305699    0.000000    6.000000    ( 0.0000,  0.0000,  0.0000)
   2 Ti     1.412752    0.000000    6.752957    ( 0.0000,  0.0000,  0.0000)
   3 Ti     6.583625    1.911173    6.752957    ( 0.0000,  0.0000,  0.0000)
   4 Ti     9.522250    1.911173    7.640878    ( 0.0000,  0.0000,  0.0000)
   5 Ti     4.351376    0.000000    7.640878    ( 0.0000,  0.0000,  0.0000)
   6 O      9.861551    0.000000    7.505914    ( 0.0000,  0.0000,  0.0000)
   7 O      4.690678    1.911173    7.505914    ( 0.0000,  0.0000,  0.0000)
   8 O      7.629303    1.911173    8.393834    ( 0.0000,  0.0000,  0.0000)
   9 O      2.458430    0.000000    8.393834    ( 0.0000,  0.0000,  0.0000)
  10 O      6.244323    0.000000    6.887921    ( 0.0000,  0.0000,  0.0000)
  11 O      1.073450    1.911173    6.887921    ( 0.0000,  0.0000,  0.0000)
  12 O      9.819634    1.910977    9.595380    ( 0.0000,  0.0000,  0.0000)
  13 O      4.636918   11.462947    9.579414    ( 0.0000,  0.0000,  0.0000)
  14 Ti     2.752765   11.469068   10.382940    ( 0.0000,  0.0000,  0.0000)
  15 Ti     7.968005    1.893126   10.375068    ( 0.0000,  0.0000,  0.0000)
  16 Ti     0.503282    1.928993   11.183631    ( 0.0000,  0.0000,  0.0000)
  17 Ti     5.660694    0.002851   11.128470    ( 0.0000,  0.0000,  0.0000)
  18 O      0.918784    0.004680   11.093830    ( 0.0000,  0.0000,  0.0000)
  19 O      6.087629    1.907151   11.080966    ( 0.0000,  0.0000,  0.0000)
  20 O      9.049015    1.915259   11.954580    ( 0.0000,  0.0000,  0.0000)
  21 O      3.862019    0.017414   11.943829    ( 0.0000,  0.0000,  0.0000)
  22 O      7.570040   11.465541   10.449514    ( 0.0000,  0.0000,  0.0000)
  23 O      2.392788    1.922511   10.450687    ( 0.0000,  0.0000,  0.0000)
  24 O      0.964463    1.933647   13.155107    ( 0.0000,  0.0000,  0.0000)
  25 O      6.104946   11.464179   13.057311    ( 0.0000,  0.0000,  0.0000)
  26 Ti     4.188338   11.423464   13.990321    ( 0.0000,  0.0000,  0.0000)
  27 Ti     9.445679    1.867242   14.021150    ( 0.0000,  0.0000,  0.0000)
  28 Ti     1.886287    1.942943   14.730053    ( 0.0000,  0.0000,  0.0000)
  29 Ti     6.992799    0.010914   14.598381    ( 0.0000,  0.0000,  0.0000)
  30 O      2.384422    0.025917   14.784299    ( 0.0000,  0.0000,  0.0000)
  31 O      7.562153    1.862344   14.785879    ( 0.0000,  0.0000,  0.0000)
  32 O      0.215872    1.911826   15.497609    ( 0.0000,  0.0000,  0.0000)
  33 O      5.374869   11.459676   15.435632    ( 0.0000,  0.0000,  0.0000)
  34 O      9.061548    0.008421   13.950736    ( 0.0000,  0.0000,  0.0000)
  35 O      3.840933    1.944019   13.974228    ( 0.0000,  0.0000,  0.0000)
  36 O      8.476572    5.733518    6.000000    ( 0.0000,  0.0000,  0.0000)
  37 O      3.305699    3.822345    6.000000    ( 0.0000,  0.0000,  0.0000)
  38 Ti     1.412752    3.822345    6.752957    ( 0.0000,  0.0000,  0.0000)
  39 Ti     6.583625    5.733518    6.752957    ( 0.0000,  0.0000,  0.0000)
  40 Ti     9.522250    5.733518    7.640878    ( 0.0000,  0.0000,  0.0000)
  41 Ti     4.351376    3.822345    7.640878    ( 0.0000,  0.0000,  0.0000)
  42 O      9.861551    3.822345    7.505914    ( 0.0000,  0.0000,  0.0000)
  43 O      4.690678    5.733518    7.505914    ( 0.0000,  0.0000,  0.0000)
  44 O      7.629303    5.733518    8.393834    ( 0.0000,  0.0000,  0.0000)
  45 O      2.458430    3.822345    8.393834    ( 0.0000,  0.0000,  0.0000)
  46 O      6.244323    3.822345    6.887921    ( 0.0000,  0.0000,  0.0000)
  47 O      1.073450    5.733518    6.887921    ( 0.0000,  0.0000,  0.0000)
  48 O      9.804110    5.735337    9.580339    ( 0.0000,  0.0000,  0.0000)
  49 O      4.644128    3.818197    9.611790    ( 0.0000,  0.0000,  0.0000)
  50 Ti     2.781103    3.812990   10.317677    ( 0.0000,  0.0000,  0.0000)
  51 Ti     7.933508    5.735586   10.392136    ( 0.0000,  0.0000,  0.0000)
  52 Ti     0.516154    5.731925   11.112102    ( 0.0000,  0.0000,  0.0000)
  53 Ti     5.728992    3.808139   11.213888    ( 0.0000,  0.0000,  0.0000)
  54 O      0.909331    3.822420   11.079553    ( 0.0000,  0.0000,  0.0000)
  55 O      6.093273    5.733755   11.111927    ( 0.0000,  0.0000,  0.0000)
  56 O      9.034768    5.735743   11.943313    ( 0.0000,  0.0000,  0.0000)
  57 O      3.838629    3.849411   11.945569    ( 0.0000,  0.0000,  0.0000)
  58 O      7.552541    3.818073   10.460242    ( 0.0000,  0.0000,  0.0000)
  59 O      2.385104    5.737398   10.439991    ( 0.0000,  0.0000,  0.0000)
  60 O      0.925263    5.744032   13.058169    ( 0.0000,  0.0000,  0.0000)
  61 O      6.035383    3.744247   13.196363    ( 0.0000,  0.0000,  0.0000)
  62 Ti     4.161963    3.797324   13.820530    ( 0.0000,  0.0000,  0.0000)
  63 Ti     9.371159    5.732447   13.976650    ( 0.0000,  0.0000,  0.0000)
  64 Ti     1.835208    5.741478   14.592462    ( 0.0000,  0.0000,  0.0000)
  65 Ti     7.196228    3.794808   14.795474    ( 0.0000,  0.0000,  0.0000)
  66 O      2.364180    3.859496   14.797786    ( 0.0000,  0.0000,  0.0000)
  67 O      7.540108    5.735882   14.617124    ( 0.0000,  0.0000,  0.0000)
  68 O      0.198089    5.735277   15.425224    ( 0.0000,  0.0000,  0.0000)
  69 O      5.178608    4.040130   15.499202    ( 0.0000,  0.0000,  0.0000)
  70 O      8.978911    3.801009   13.991471    ( 0.0000,  0.0000,  0.0000)
  71 O      3.798273    5.766727   13.925033    ( 0.0000,  0.0000,  0.0000)
  72 O      8.476572    9.555862    6.000000    ( 0.0000,  0.0000,  0.0000)
  73 O      3.305699    7.644690    6.000000    ( 0.0000,  0.0000,  0.0000)
  74 Ti     1.412752    7.644690    6.752957    ( 0.0000,  0.0000,  0.0000)
  75 Ti     6.583625    9.555862    6.752957    ( 0.0000,  0.0000,  0.0000)
  76 Ti     9.522250    9.555862    7.640878    ( 0.0000,  0.0000,  0.0000)
  77 Ti     4.351376    7.644690    7.640878    ( 0.0000,  0.0000,  0.0000)
  78 O      9.861551    7.644690    7.505914    ( 0.0000,  0.0000,  0.0000)
  79 O      4.690678    9.555862    7.505914    ( 0.0000,  0.0000,  0.0000)
  80 O      7.629303    9.555862    8.393834    ( 0.0000,  0.0000,  0.0000)
  81 O      2.458430    7.644690    8.393834    ( 0.0000,  0.0000,  0.0000)
  82 O      6.244323    7.644690    6.887921    ( 0.0000,  0.0000,  0.0000)
  83 O      1.073450    9.555862    6.887921    ( 0.0000,  0.0000,  0.0000)
  84 O      9.818530    9.559459    9.596843    ( 0.0000,  0.0000,  0.0000)
  85 O      4.647944    7.641443    9.609712    ( 0.0000,  0.0000,  0.0000)
  86 Ti     2.775556    7.655566   10.322498    ( 0.0000,  0.0000,  0.0000)
  87 Ti     7.976873    9.570201   10.370488    ( 0.0000,  0.0000,  0.0000)
  88 Ti     0.510596    9.543724   11.192642    ( 0.0000,  0.0000,  0.0000)
  89 Ti     5.720215    7.671676   11.204395    ( 0.0000,  0.0000,  0.0000)
  90 O      0.912343    7.652465   11.078345    ( 0.0000,  0.0000,  0.0000)
  91 O      6.085880    9.557342   11.084849    ( 0.0000,  0.0000,  0.0000)
  92 O      9.051810    9.555442   11.955998    ( 0.0000,  0.0000,  0.0000)
  93 O      3.842567    7.656720   11.942970    ( 0.0000,  0.0000,  0.0000)
  94 O      7.554188    7.651354   10.459566    ( 0.0000,  0.0000,  0.0000)
  95 O      2.393920    9.555094   10.448902    ( 0.0000,  0.0000,  0.0000)
  96 O      0.973984    9.553319   13.153589    ( 0.0000,  0.0000,  0.0000)
  97 O      6.035149    7.691185   13.207792    ( 0.0000,  0.0000,  0.0000)
  98 Ti     4.188138    7.606450   13.826392    ( 0.0000,  0.0000,  0.0000)
  99 Ti     9.456313    9.624342   14.007229    ( 0.0000,  0.0000,  0.0000)
 100 Ti     1.889795    9.518922   14.749519    ( 0.0000,  0.0000,  0.0000)
 101 Ti     7.222821    7.705404   14.792549    ( 0.0000,  0.0000,  0.0000)
 102 O      2.358337    7.648625   14.812868    ( 0.0000,  0.0000,  0.0000)
 103 O      7.565848    9.622131   14.782401    ( 0.0000,  0.0000,  0.0000)
 104 O      0.218298    9.590162   15.491329    ( 0.0000,  0.0000,  0.0000)
 105 O      5.178656    7.585101   15.544052    ( 0.0000,  0.0000,  0.0000)
 106 O      8.986998    7.679844   13.995703    ( 0.0000,  0.0000,  0.0000)
 107 O      3.837045    9.563665   13.953873    ( 0.0000,  0.0000,  0.0000)
 108 V      5.688772    4.128204   17.199834    ( 0.0000,  0.0000,  0.0000)
 109 V      5.755707    7.447728   17.214290    ( 0.0000,  0.0000,  0.0000)
 110 O      5.395735    5.788945   17.853783    ( 0.0000,  0.0000,  0.0000)
 111 O      7.364551    3.819483   16.726469    ( 0.0000,  0.0000,  0.0000)
 112 O      5.139605    8.650381   18.055435    ( 0.0000,  0.0000,  0.0000)
 113 O      4.958959    2.991871   18.040188    ( 0.0000,  0.0000,  0.0000)
 114 O      7.437940    7.644351   16.710906    ( 0.0000,  0.0000,  0.0000)

Unit cell:
           periodic     x           y           z      points  spacing
  1. axis:    yes   10.341746    0.000000    0.000000    54     0.1915
  2. axis:    yes   -0.000000   11.467000    0.000000    60     0.1911
  3. axis:    no     0.000000    0.000000   23.497201   125     0.1880

  Lengths:  10.341746  11.467000  23.497201
  Angles:   90.000000  90.000000  90.000000

Effective grid spacing dv^(1/3) = 0.1902

                     log10-error:    total        iterations:
           time      wfs    density  energy       fermi  poisson
iter:   1  03:44:46  -2.06   +inf  -955.812430    2             
iter:   2  03:45:41  -2.89  -2.90  -955.785873    3             
iter:   3  03:46:35  -2.70  -2.92  -955.672218    3             
iter:   4  03:47:29  -3.43  -3.12  -955.675643    2             
iter:   5  03:48:24  -4.07  -3.16  -955.672395    2             
iter:   6  03:49:18  -3.30  -3.24  -955.667579    3             
iter:   7  03:50:13  -4.05  -3.35  -955.666008    2             
iter:   8  03:51:07  -3.96  -3.45  -955.659882    2             
iter:   9  03:52:02  -4.50  -3.75  -955.660494    2             
iter:  10  03:52:56  -5.09  -3.79  -955.660285    2             
iter:  11  03:53:50  -5.28  -3.94  -955.660484    2             
iter:  12  03:54:45  -5.18  -4.07  -955.660081    2             
iter:  13  03:55:39  -5.43  -4.21  -955.660135    1             
iter:  14  03:56:34  -5.68  -4.25  -955.660129    1             
iter:  15  03:57:28  -6.58  -4.34  -955.660110    1             
iter:  16  03:58:23  -5.69  -4.41  -955.660121    1             
iter:  17  03:59:17  -6.39  -4.56  -955.660102    1             
iter:  18  04:00:11  -7.38  -4.72  -955.660101    1             
iter:  19  04:01:06  -6.59  -4.78  -955.660099    1             
iter:  20  04:02:00  -6.45  -4.96  -955.660102    1             
iter:  21  04:02:55  -7.16  -5.12  -955.660103    1             
iter:  22  04:03:49  -7.45  -5.07  -955.660106    1             

Converged after 22 iterations.

Dipole moment: (-16.979982, -2.558927, -1.556487) |e|*Ang

Energy contributions relative to reference atoms: (reference = -1044851.132452)

Kinetic:       +682.955098
Potential:     -872.804325
External:        +0.000000
XC:            -773.519676
Entropy (-ST):   -0.000544
Local:           +7.709068
--------------------------
Free energy:   -955.660378
Extrapolated:  -955.660106

Fermi level: -0.79409

Showing only first 2 kpts
 Kpt  Band  Eigenvalues  Occupancy
  0   458     -1.86943    0.22222
  0   459     -1.85731    0.22222
  0   460      0.05114    0.00005
  0   461      0.18141    0.00001

  1   458     -1.87243    0.44444
  1   459     -1.85148    0.44443
  1   460      0.24659    0.00001
  1   461      0.31887    0.00001



Forces in eV/Ang:
  0 O    -1.87215    0.00388    1.57529
  1 O    -1.93811   -0.00138    1.54834
  2 Ti    3.85732    0.00029    1.93445
  3 Ti    3.80574   -0.00417    1.92937
  4 Ti   -1.89803   -0.02307   -1.91249
  5 Ti   -1.86883    0.00122   -1.97804
  6 O     0.87892    0.00047   -0.18763
  7 O     0.86217    0.05387   -0.20011
  8 O    -0.57719    0.00445   -0.54891
  9 O    -0.69564    0.01450   -0.60716
 10 O    -0.26339   -0.00474   -0.85288
 11 O    -0.24281    0.09796   -0.91421
 12 O    -0.09445   -0.00649    0.06475
 13 O    -0.17434    0.00285    0.01245
 14 Ti    0.10766    0.01735   -0.09360
 15 Ti   -0.09355    0.06702   -0.07022
 16 Ti    0.03321    0.01808   -0.16384
 17 Ti    0.06492    0.00641    0.07790
 18 O     0.09127   -0.01287    0.02501
 19 O     0.19147   -0.04161   -0.09838
 20 O     0.14863   -0.00694    0.20120
 21 O    -0.00752   -0.00943    0.03673
 22 O     0.04852   -0.00633    0.07231
 23 O    -0.02539   -0.04946    0.10774
 24 O    -0.01392   -0.00372   -0.05701
 25 O    -0.11059    0.00637    0.01440
 26 Ti    0.17174    0.18646   -0.05605
 27 Ti   -0.27382    0.17321    0.08018
 28 Ti   -0.36622    0.05732   -0.95585
 29 Ti    0.11363    0.00185    0.06686
 30 O     0.04010   -0.22592    0.60148
 31 O     0.16736   -0.09095   -0.09188
 32 O     0.27269   -0.02483    0.20928
 33 O     0.01756    0.00072   -0.06831
 34 O    -0.02350   -0.00574    0.08441
 35 O    -0.32176   -0.16869    0.28148
 36 O    -1.89115    0.00046    1.55841
 37 O    -1.95097    0.00275    1.59922
 38 Ti    3.64431   -0.05456    1.70928
 39 Ti    3.86684   -0.00238    1.97229
 40 Ti   -2.01141   -0.00134   -2.00144
 41 Ti   -1.49471   -0.02124   -1.66382
 42 O     0.94609   -0.00835   -0.20191
 43 O     0.81981   -0.00468   -0.18833
 44 O    -0.66102    0.00143   -0.65969
 45 O    -0.69149    0.01506   -0.69430
 46 O    -0.32324   -0.01305   -0.87867
 47 O    -0.20098   -0.00284   -0.83942
 48 O    -0.12724    0.00413    0.01646
 49 O    -0.13769   -0.00503   -0.02730
 50 Ti    0.07183    0.05960    0.05871
 51 Ti    0.01028   -0.00863   -0.08570
 52 Ti    0.01088    0.00652    0.09923
 53 Ti   -0.05476    0.04213    0.17703
 54 O     0.12457   -0.02123   -0.05819
 55 O     0.16140    0.01614    0.00190
 56 O     0.06102    0.00473    0.01701
 57 O    -0.00491    0.00275   -0.04530
 58 O     0.06686   -0.02296    0.09401
 59 O     0.00178   -0.00268   -0.01175
 60 O    -0.02030    0.00398   -0.01935
 61 O    -0.07382   -0.01575   -0.33944
 62 Ti    0.23131    0.10781    0.29056
 63 Ti   -0.05675    0.00720   -0.05943
 64 Ti    0.02733    0.03658    0.06900
 65 Ti   -0.25370    0.14588    0.55088
 66 O    -0.04381   -0.27719    0.22791
 67 O     0.01647    0.04482    0.17612
 68 O     0.02313    0.01790   -0.02966
 69 O     0.13984   -0.09443   -0.09575
 70 O     0.02259   -0.07506    0.17388
 71 O    -0.31373   -0.13010   -0.00524
 72 O    -1.87440   -0.00339    1.57585
 73 O    -1.94634   -0.00489    1.59949
 74 Ti    3.65174    0.05686    1.72136
 75 Ti    3.79823    0.00660    1.91785
 76 Ti   -1.87674    0.02473   -1.90161
 77 Ti   -1.51729    0.01724   -1.69354
 78 O     0.94307    0.01578   -0.20109
 79 O     0.86492   -0.06470   -0.20072
 80 O    -0.58368   -0.00640   -0.54937
 81 O    -0.66944    0.00947   -0.67350
 82 O    -0.31985    0.01793   -0.87412
 83 O    -0.24706   -0.09469   -0.91506
 84 O    -0.06869    0.00620    0.08212
 85 O    -0.15295    0.00500   -0.03910
 86 Ti    0.09618   -0.05055    0.05593
 87 Ti   -0.13896   -0.04652   -0.06974
 88 Ti    0.03744   -0.01435   -0.22723
 89 Ti   -0.03738   -0.05626    0.18219
 90 O     0.11939    0.02632   -0.05195
 91 O     0.20639    0.07051   -0.09181
 92 O     0.16720    0.01914    0.22273
 93 O    -0.00790    0.03049   -0.04252
 94 O     0.06342    0.03482    0.08371
 95 O    -0.04003    0.03464    0.11149
 96 O    -0.01680   -0.03533    0.06561
 97 O    -0.03408    0.02514   -0.36004
 98 Ti    0.17313    0.01917    0.34220
 99 Ti   -0.33218   -0.15223    0.07250
100 Ti   -0.38514    0.20496   -1.21247
101 Ti   -0.25231   -0.19089    0.47537
102 O    -0.02706    0.12841    0.25585
103 O     0.20037    0.10621   -0.12278
104 O     0.26999    0.00832    0.30840
105 O     0.20662   -0.00937   -0.17287
106 O     0.03069    0.08984    0.16629
107 O    -0.38486    0.00317    0.33564
108 V     0.23112    0.50894   -0.29624
109 V     0.13508   -0.44262   -0.30669
110 O    -0.05899    0.05111    0.17254
111 O    -0.10789   -0.07513   -0.27059
112 O     0.08303    0.09199    0.44785
113 O     0.07126   -0.21712    0.36533
114 O    -0.15950    0.07201   -0.26797

System changes: positions 

Initializing position-dependent things.

Density initialized from wave functions
                                                
                                                
                                                
                                                
                                                
                                                
                         O                      
                          V O                   
              O         O     O                 
                  Ti O   Oi     O               
                  O   O V   OOTi    Ti          
           O   O                  O             
               Ti     Oi   O O                  
         O     O    OTi    Ti    OTi            
             Tii   OTi    OOO   O               
             OO   O     O Ti   TiOi             
          O Ti     Oi   TiO  O O     O          
            O   O      Ti     TiO               
                TiO      O  O  O   O Ti         
         Ti   O O    O Oi    Ti     O           
         O     Ti    Ti    OTi    Ti            
             O O    O O         O               
                    Ti     Oi     O             
             Oi     O    O      Ti              
           O     OTi    Ti     O                
          Ti          O      O                  
               O                                
                                                
                                                
                                                
                                                

Positions:
   0 O      8.476572    1.911173    6.000000    ( 0.0000,  0.0000,  0.0000)
   1 O      3.305699    0.000000    6.000000    ( 0.0000,  0.0000,  0.0000)
   2 Ti     1.412752    0.000000    6.752957    ( 0.0000,  0.0000,  0.0000)
   3 Ti     6.583625    1.911173    6.752957    ( 0.0000,  0.0000,  0.0000)
   4 Ti     9.522250    1.911173    7.640878    ( 0.0000,  0.0000,  0.0000)
   5 Ti     4.351376    0.000000    7.640878    ( 0.0000,  0.0000,  0.0000)
   6 O      9.861551    0.000000    7.505914    ( 0.0000,  0.0000,  0.0000)
   7 O      4.690678    1.911173    7.505914    ( 0.0000,  0.0000,  0.0000)
   8 O      7.629303    1.911173    8.393834    ( 0.0000,  0.0000,  0.0000)
   9 O      2.458430    0.000000    8.393834    ( 0.0000,  0.0000,  0.0000)
  10 O      6.244323    0.000000    6.887921    ( 0.0000,  0.0000,  0.0000)
  11 O      1.073450    1.911173    6.887921    ( 0.0000,  0.0000,  0.0000)
  12 O      9.817019    1.910791    9.597471    ( 0.0000,  0.0000,  0.0000)
  13 O      4.631922   11.463021    9.579887    ( 0.0000,  0.0000,  0.0000)
  14 Ti     2.755480   11.469595   10.379643    ( 0.0000,  0.0000,  0.0000)
  15 Ti     7.965369    1.895000   10.372688    ( 0.0000,  0.0000,  0.0000)
  16 Ti     0.504043    1.929697   11.178694    ( 0.0000,  0.0000,  0.0000)
  17 Ti     5.663050    0.003078   11.130491    ( 0.0000,  0.0000,  0.0000)
  18 O      0.921500    0.004261   11.094485    ( 0.0000,  0.0000,  0.0000)
  19 O      6.092916    1.905858   11.078286    ( 0.0000,  0.0000,  0.0000)
  20 O      9.053186    1.915038   11.960375    ( 0.0000,  0.0000,  0.0000)
  21 O      3.861659    0.017136   11.945499    ( 0.0000,  0.0000,  0.0000)
  22 O      7.571173   11.465324   10.451587    ( 0.0000,  0.0000,  0.0000)
  23 O      2.392096    1.921066   10.453707    ( 0.0000,  0.0000,  0.0000)
  24 O      0.965471    1.933420   13.156572    ( 0.0000,  0.0000,  0.0000)
  25 O      6.101266   11.464308   13.057076    ( 0.0000,  0.0000,  0.0000)
  26 Ti     4.196082   11.429142   13.988546    ( 0.0000,  0.0000,  0.0000)
  27 Ti     9.436814    1.872565   14.022008    ( 0.0000,  0.0000,  0.0000)
  28 Ti     1.874453    1.946425   14.701337    ( 0.0000,  0.0000,  0.0000)
  29 Ti     6.996018    0.011219   14.601006    ( 0.0000,  0.0000,  0.0000)
  30 O      2.384729    0.018922   14.801555    ( 0.0000,  0.0000,  0.0000)
  31 O      7.567234    1.859338   14.783119    ( 0.0000,  0.0000,  0.0000)
  32 O      0.225267    1.911045   15.504392    ( 0.0000,  0.0000,  0.0000)
  33 O      5.374136   11.459617   15.432818    ( 0.0000,  0.0000,  0.0000)
  34 O      9.061126    0.007803   13.953134    ( 0.0000,  0.0000,  0.0000)
  35 O      3.831173    1.938249   13.982375    ( 0.0000,  0.0000,  0.0000)
  36 O      8.476572    5.733518    6.000000    ( 0.0000,  0.0000,  0.0000)
  37 O      3.305699    3.822345    6.000000    ( 0.0000,  0.0000,  0.0000)
  38 Ti     1.412752    3.822345    6.752957    ( 0.0000,  0.0000,  0.0000)
  39 Ti     6.583625    5.733518    6.752957    ( 0.0000,  0.0000,  0.0000)
  40 Ti     9.522250    5.733518    7.640878    ( 0.0000,  0.0000,  0.0000)
  41 Ti     4.351376    3.822345    7.640878    ( 0.0000,  0.0000,  0.0000)
  42 O      9.861551    3.822345    7.505914    ( 0.0000,  0.0000,  0.0000)
  43 O      4.690678    5.733518    7.505914    ( 0.0000,  0.0000,  0.0000)
  44 O      7.629303    5.733518    8.393834    ( 0.0000,  0.0000,  0.0000)
  45 O      2.458430    3.822345    8.393834    ( 0.0000,  0.0000,  0.0000)
  46 O      6.244323    3.822345    6.887921    ( 0.0000,  0.0000,  0.0000)
  47 O      1.073450    5.733518    6.887921    ( 0.0000,  0.0000,  0.0000)
  48 O      9.800577    5.735454    9.580950    ( 0.0000,  0.0000,  0.0000)
  49 O      4.640120    3.818064    9.611191    ( 0.0000,  0.0000,  0.0000)
  50 Ti     2.782858    3.814639   10.318904    ( 0.0000,  0.0000,  0.0000)
  51 Ti     7.933720    5.735326   10.389643    ( 0.0000,  0.0000,  0.0000)
  52 Ti     0.516179    5.732023   11.114595    ( 0.0000,  0.0000,  0.0000)
  53 Ti     5.727915    3.809368   11.218828    ( 0.0000,  0.0000,  0.0000)
  54 O      0.912976    3.821795   11.077891    ( 0.0000,  0.0000,  0.0000)
  55 O      6.097777    5.734249   11.112016    ( 0.0000,  0.0000,  0.0000)
  56 O      9.036618    5.735892   11.943780    ( 0.0000,  0.0000,  0.0000)
  57 O      3.838340    3.849473   11.944062    ( 0.0000,  0.0000,  0.0000)
  58 O      7.554241    3.817388   10.462882    ( 0.0000,  0.0000,  0.0000)
  59 O      2.385228    5.737363   10.439730    ( 0.0000,  0.0000,  0.0000)
  60 O      0.924785    5.744197   13.057682    ( 0.0000,  0.0000,  0.0000)
  61 O      6.032835    3.743794   13.186466    ( 0.0000,  0.0000,  0.0000)
  62 Ti     4.169915    3.801637   13.829460    ( 0.0000,  0.0000,  0.0000)
  63 Ti     9.368726    5.732365   13.974931    ( 0.0000,  0.0000,  0.0000)
  64 Ti     1.835999    5.741940   14.594438    ( 0.0000,  0.0000,  0.0000)
  65 Ti     7.188648    3.798951   14.811578    ( 0.0000,  0.0000,  0.0000)
  66 O      2.362667    3.850346   14.804237    ( 0.0000,  0.0000,  0.0000)
  67 O      7.540991    5.737339   14.621875    ( 0.0000,  0.0000,  0.0000)
  68 O      0.199170    5.735844   15.424490    ( 0.0000,  0.0000,  0.0000)
  69 O      5.181146    4.037488   15.492768    ( 0.0000,  0.0000,  0.0000)
  70 O      8.980179    3.798496   13.995948    ( 0.0000,  0.0000,  0.0000)
  71 O      3.789379    5.763482   13.924834    ( 0.0000,  0.0000,  0.0000)
  72 O      8.476572    9.555862    6.000000    ( 0.0000,  0.0000,  0.0000)
  73 O      3.305699    7.644690    6.000000    ( 0.0000,  0.0000,  0.0000)
  74 Ti     1.412752    7.644690    6.752957    ( 0.0000,  0.0000,  0.0000)
  75 Ti     6.583625    9.555862    6.752957    ( 0.0000,  0.0000,  0.0000)
  76 Ti     9.522250    9.555862    7.640878    ( 0.0000,  0.0000,  0.0000)
  77 Ti     4.351376    7.644690    7.640878    ( 0.0000,  0.0000,  0.0000)
  78 O      9.861551    7.644690    7.505914    ( 0.0000,  0.0000,  0.0000)
  79 O      4.690678    9.555862    7.505914    ( 0.0000,  0.0000,  0.0000)
  80 O      7.629303    9.555862    8.393834    ( 0.0000,  0.0000,  0.0000)
  81 O      2.458430    7.644690    8.393834    ( 0.0000,  0.0000,  0.0000)
  82 O      6.244323    7.644690    6.887921    ( 0.0000,  0.0000,  0.0000)
  83 O      1.073450    9.555862    6.887921    ( 0.0000,  0.0000,  0.0000)
  84 O      9.816653    9.559633    9.599501    ( 0.0000,  0.0000,  0.0000)
  85 O      4.643494    7.641580    9.608785    ( 0.0000,  0.0000,  0.0000)
  86 Ti     2.777954    7.654107   10.323509    ( 0.0000,  0.0000,  0.0000)
  87 Ti     7.973012    9.568909   10.368008    ( 0.0000,  0.0000,  0.0000)
  88 Ti     0.511389    9.543195   11.185609    ( 0.0000,  0.0000,  0.0000)
  89 Ti     5.719692    7.670004   11.209298    ( 0.0000,  0.0000,  0.0000)
  90 O      0.915862    7.653303   11.076867    ( 0.0000,  0.0000,  0.0000)
  91 O      6.091554    9.559422   11.082376    ( 0.0000,  0.0000,  0.0000)
  92 O      9.056526    9.555983   11.962572    ( 0.0000,  0.0000,  0.0000)
  93 O      3.842177    7.657645   11.941746    ( 0.0000,  0.0000,  0.0000)
  94 O      7.555772    7.652370   10.461938    ( 0.0000,  0.0000,  0.0000)
  95 O      2.392802    9.556072   10.452052    ( 0.0000,  0.0000,  0.0000)
  96 O      0.975088    9.552392   13.159254    ( 0.0000,  0.0000,  0.0000)
  97 O      6.033646    7.691942   13.197560    ( 0.0000,  0.0000,  0.0000)
  98 Ti     4.194687    7.605498   13.836467    ( 0.0000,  0.0000,  0.0000)
  99 Ti     9.445055    9.620020   14.006891    ( 0.0000,  0.0000,  0.0000)
 100 Ti     1.877974    9.523215   14.713279    ( 0.0000,  0.0000,  0.0000)
 101 Ti     7.215261    7.699795   14.806646    ( 0.0000,  0.0000,  0.0000)
 102 O      2.357096    7.654541   14.820278    ( 0.0000,  0.0000,  0.0000)
 103 O      7.571971    9.625406   14.778802    ( 0.0000,  0.0000,  0.0000)
 104 O      0.227977    9.590394   15.501516    ( 0.0000,  0.0000,  0.0000)
 105 O      5.182931    7.584934   15.535488    ( 0.0000,  0.0000,  0.0000)
 106 O      8.988565    7.683020   13.999994    ( 0.0000,  0.0000,  0.0000)
 107 O      3.825256    9.564117   13.963721    ( 0.0000,  0.0000,  0.0000)
 108 V      5.688093    4.133811   17.201684    ( 0.0000,  0.0000,  0.0000)
 109 V      5.753978    7.442976   17.215275    ( 0.0000,  0.0000,  0.0000)
 110 O      5.394622    5.790913   17.857850    ( 0.0000,  0.0000,  0.0000)
 111 O      7.364173    3.817305   16.717531    ( 0.0000,  0.0000,  0.0000)
 112 O      5.145490    8.646003   18.062465    ( 0.0000,  0.0000,  0.0000)
 113 O      4.965704    2.993250   18.044288    ( 0.0000,  0.0000,  0.0000)
 114 O      7.435854    7.646327   16.701944    ( 0.0000,  0.0000,  0.0000)

Unit cell:
           periodic     x           y           z      points  spacing
  1. axis:    yes   10.341746    0.000000    0.000000    54     0.1915
  2. axis:    yes   -0.000000   11.467000    0.000000    60     0.1911
  3. axis:    no     0.000000    0.000000   23.497201   125     0.1880

  Lengths:  10.341746  11.467000  23.497201
  Angles:   90.000000  90.000000  90.000000

Effective grid spacing dv^(1/3) = 0.1902

                     log10-error:    total        iterations:
           time      wfs    density  energy       fermi  poisson
iter:   1  04:05:04  -2.38   +inf  -955.831768    3             
iter:   2  04:05:58  -3.32  -3.00  -955.831212    2             
iter:   3  04:06:53  -3.17  -3.02  -955.807650    3             
iter:   4  04:07:48  -4.14  -3.25  -955.807668    2             
iter:   5  04:08:42  -4.09  -3.26  -955.808613    2             
iter:   6  04:09:37  -4.10  -3.30  -955.804037    3             
iter:   7  04:10:32  -5.01  -3.63  -955.803715    2             
iter:   8  04:11:26  -5.14  -3.74  -955.803295    2             
iter:   9  04:12:21  -5.49  -3.95  -955.803520    2             
iter:  10  04:13:16  -5.16  -3.92  -955.803248    2             
iter:  11  04:14:10  -6.38  -4.21  -955.803213    2             
iter:  12  04:15:05  -7.10  -4.29  -955.803208    1             
iter:  13  04:16:00  -6.33  -4.30  -955.803207    1             
iter:  14  04:16:54  -5.86  -4.36  -955.803232    1             
iter:  15  04:17:49  -6.53  -4.50  -955.803201    2             
iter:  16  04:18:43  -7.25  -4.63  -955.803202    1             
iter:  17  04:19:38  -6.79  -4.82  -955.803207    1             
iter:  18  04:20:33  -6.94  -4.90  -955.803201    1             
iter:  19  04:21:27  -7.73  -5.19  -955.803201    1             

Converged after 19 iterations.

Dipole moment: (-17.269503, -2.129233, -1.460969) |e|*Ang

Energy contributions relative to reference atoms: (reference = -1044851.132452)

Kinetic:       +685.585608
Potential:     -875.032350
External:        +0.000000
XC:            -774.063148
Entropy (-ST):   -0.000507
Local:           +7.706942
--------------------------
Free energy:   -955.803454
Extrapolated:  -955.803201

Fermi level: -0.78063

Showing only first 2 kpts
 Kpt  Band  Eigenvalues  Occupancy
  0   458     -1.85996    0.22222
  0   459     -1.84466    0.22222
  0   460      0.07289    0.00004
  0   461      0.19936    0.00001

  1   458     -1.85849    0.44444
  1   459     -1.84072    0.44443
  1   460      0.26762    0.00001
  1   461      0.33762    0.00001



Forces in eV/Ang:
  0 O    -1.86876    0.00265    1.57931
  1 O    -1.94149   -0.00134    1.54346
  2 Ti    3.86759    0.00045    1.93582
  3 Ti    3.78416    0.00227    1.92438
  4 Ti   -1.88354   -0.01545   -1.91264
  5 Ti   -1.87002    0.00093   -1.96093
  6 O     0.87204   -0.00143   -0.18080
  7 O     0.87319    0.04582   -0.20611
  8 O    -0.58032    0.00398   -0.54605
  9 O    -0.71715    0.01426   -0.64808
 10 O    -0.25654   -0.00571   -0.85339
 11 O    -0.25177    0.08821   -0.91192
 12 O    -0.08131   -0.00373    0.00371
 13 O    -0.09722    0.00328    0.02369
 14 Ti    0.09052    0.00908   -0.00693
 15 Ti   -0.03429    0.04694    0.01785
 16 Ti    0.01792   -0.03177   -0.11027
 17 Ti   -0.00061   -0.00031    0.05732
 18 O     0.05612   -0.00192    0.02495
 19 O     0.13443   -0.00710   -0.07734
 20 O     0.10261    0.00384    0.11770
 21 O     0.02682   -0.00655   -0.02101
 22 O     0.06158    0.00510    0.05914
 23 O    -0.00400   -0.02328    0.08950
 24 O    -0.25700    0.00998   -0.55865
 25 O    -0.01474    0.01278    0.08140
 26 Ti   -0.23824    0.08821    0.05043
 27 Ti   -0.05542    0.03258    0.23927
 28 Ti   -0.00572   -0.21475   -0.28632
 29 Ti    0.06966   -0.03124   -0.03690
 30 O     0.13814   -0.07684    0.37475
 31 O     0.04063    0.06454   -0.01823
 32 O    -0.01790   -0.00647    0.01298
 33 O     0.17748    0.01122    0.03593
 34 O    -0.04710    0.05242    0.07685
 35 O    -0.11756    0.02639    0.18656
 36 O    -1.89384    0.00057    1.55578
 37 O    -1.95410    0.00172    1.58938
 38 Ti    3.66786   -0.04613    1.72743
 39 Ti    3.85243   -0.00267    1.97026
 40 Ti   -1.99272   -0.00163   -1.98704
 41 Ti   -1.51505   -0.01529   -1.63964
 42 O     0.93697   -0.01783   -0.19750
 43 O     0.83046   -0.00592   -0.19522
 44 O    -0.67594    0.00113   -0.66485
 45 O    -0.70982    0.01104   -0.72868
 46 O    -0.31296   -0.01858   -0.88529
 47 O    -0.20898   -0.00344   -0.83996
 48 O    -0.08936    0.00321    0.01914
 49 O    -0.06905   -0.00453   -0.01433
 50 Ti    0.06841    0.04089    0.06017
 51 Ti    0.03461   -0.00226   -0.08101
 52 Ti    0.03691    0.01611    0.08073
 53 Ti   -0.08686    0.02517    0.08611
 54 O     0.07621    0.00937   -0.03809
 55 O     0.10611    0.00623    0.00438
 56 O     0.03162    0.00204    0.04084
 57 O     0.02964   -0.00090    0.06915
 58 O     0.06525    0.00013    0.08785
 59 O    -0.00236   -0.00659   -0.01258
 60 O    -0.03106   -0.00238    0.00136
 61 O     0.00980   -0.00939   -0.11269
 62 Ti   -0.12039   -0.09735    0.02425
 63 Ti    0.12698    0.03866   -0.06141
 64 Ti    0.00194    0.10030    0.05854
 65 Ti   -0.02121    0.01872    0.09240
 66 O     0.03258   -0.00104    0.15048
 67 O    -0.09887    0.00457    0.20406
 68 O    -0.06681    0.00517   -0.04657
 69 O     0.25841   -0.03385    0.21420
 70 O    -0.11281    0.05224    0.24085
 71 O    -0.18213   -0.13373    0.01477
 72 O    -1.86925   -0.00221    1.58188
 73 O    -1.95071   -0.00393    1.58830
 74 Ti    3.67835    0.04842    1.74044
 75 Ti    3.77288    0.00046    1.91147
 76 Ti   -1.86091    0.01741   -1.90360
 77 Ti   -1.53838    0.01140   -1.66780
 78 O     0.93293    0.02723   -0.19609
 79 O     0.87715   -0.05536   -0.20736
 80 O    -0.58179   -0.00550   -0.54386
 81 O    -0.69098    0.01288   -0.71529
 82 O    -0.30861    0.02449   -0.88285
 83 O    -0.25717   -0.08439   -0.91253
 84 O    -0.06315    0.00412    0.00399
 85 O    -0.07759    0.00491   -0.02027
 86 Ti    0.09440   -0.02538    0.07469
 87 Ti   -0.07171   -0.03257    0.03751
 88 Ti    0.01824    0.02608   -0.13576
 89 Ti   -0.08030   -0.03053    0.11911
 90 O     0.06995   -0.01522   -0.03217
 91 O     0.15033    0.02972   -0.07538
 92 O     0.11731    0.00951    0.10927
 93 O     0.03289    0.01231    0.05207
 94 O     0.06381    0.00843    0.07727
 95 O    -0.01190    0.01941    0.08992
 96 O    -0.31305   -0.03223   -0.62943
 97 O     0.04213    0.01228   -0.16873
 98 Ti   -0.20067    0.22867    0.10517
 99 Ti   -0.02516   -0.06559    0.36123
100 Ti   -0.04590    0.34742   -0.37663
101 Ti   -0.03162   -0.03336    0.02758
102 O     0.07490   -0.22517    0.14164
103 O     0.05295   -0.03482   -0.04715
104 O    -0.06249    0.00316    0.00488
105 O     0.31596   -0.05002    0.13080
106 O    -0.11183   -0.06735    0.23684
107 O    -0.12616   -0.08896    0.19233
108 V     0.16381    0.27694   -0.29567
109 V     0.09044   -0.18590   -0.31713
110 O    -0.06671   -0.00881    0.18244
111 O    -0.17830   -0.01929   -0.02539
112 O     0.12420   -0.01097    0.35094
113 O     0.12798   -0.09332    0.27671
114 O    -0.20498    0.02510   -0.01528

System changes: positions 

Initializing position-dependent things.

Density initialized from wave functions
                                                
                                                
                                                
                                                
                                                
                                                
                         O                      
                          V O                   
              O         O     O                 
                  Ti O   Oi     O               
                  O   O V   OOTi    Ti          
           O   O                  O             
               Ti     Oi   O O                  
         O     O    OTi    Ti    OTiO           
             Tii   OTi    OOO   O               
             OO   O     O Ti   TiOi             
          O Ti     Oi   TiO  O O     O          
            O   O      Ti     TiO               
                TiO      O  O  O   O Ti         
         Ti   O O    O Oi    Ti     O           
         O     Ti    Ti    OTi    Ti            
             O O    O O         O               
                    Ti     Oi     O             
             Oi     O    O      Ti              
           O     OTi    Ti     O                
          Ti          O      O                  
               O                                
                                                
                                                
                                                
                                                

Positions:
   0 O      8.476572    1.911173    6.000000    ( 0.0000,  0.0000,  0.0000)
   1 O      3.305699    0.000000    6.000000    ( 0.0000,  0.0000,  0.0000)
   2 Ti     1.412752    0.000000    6.752957    ( 0.0000,  0.0000,  0.0000)
   3 Ti     6.583625    1.911173    6.752957    ( 0.0000,  0.0000,  0.0000)
   4 Ti     9.522250    1.911173    7.640878    ( 0.0000,  0.0000,  0.0000)
   5 Ti     4.351376    0.000000    7.640878    ( 0.0000,  0.0000,  0.0000)
   6 O      9.861551    0.000000    7.505914    ( 0.0000,  0.0000,  0.0000)
   7 O      4.690678    1.911173    7.505914    ( 0.0000,  0.0000,  0.0000)
   8 O      7.629303    1.911173    8.393834    ( 0.0000,  0.0000,  0.0000)
   9 O      2.458430    0.000000    8.393834    ( 0.0000,  0.0000,  0.0000)
  10 O      6.244323    0.000000    6.887921    ( 0.0000,  0.0000,  0.0000)
  11 O      1.073450    1.911173    6.887921    ( 0.0000,  0.0000,  0.0000)
  12 O      9.814392    1.910642    9.598492    ( 0.0000,  0.0000,  0.0000)
  13 O      4.627972   11.463112    9.580588    ( 0.0000,  0.0000,  0.0000)
  14 Ti     2.758221   11.470000   10.377918    ( 0.0000,  0.0000,  0.0000)
  15 Ti     7.963635    1.896669   10.371919    ( 0.0000,  0.0000,  0.0000)
  16 Ti     0.504632    1.929437   11.174420    ( 0.0000,  0.0000,  0.0000)
  17 Ti     5.664196    0.003182   11.132359    ( 0.0000,  0.0000,  0.0000)
  18 O      0.923750    0.004032   11.095218    ( 0.0000,  0.0000,  0.0000)
  19 O      6.097635    1.905150   11.075728    ( 0.0000,  0.0000,  0.0000)
  20 O      9.056869    1.915014   11.965064    ( 0.0000,  0.0000,  0.0000)
  21 O      3.861981    0.016891   11.946012    ( 0.0000,  0.0000,  0.0000)
  22 O      7.572742   11.465320   10.453593    ( 0.0000,  0.0000,  0.0000)
  23 O      2.391748    1.920008   10.456669    ( 0.0000,  0.0000,  0.0000)
  24 O      0.961402    1.933476   13.147445    ( 0.0000,  0.0000,  0.0000)
  25 O      6.099272   11.464589   13.058321    ( 0.0000,  0.0000,  0.0000)
  26 Ti     4.195689   11.433325   13.988740    ( 0.0000,  0.0000,  0.0000)
  27 Ti     9.431701    1.875524   14.026482    ( 0.0000,  0.0000,  0.0000)
  28 Ti     1.868970    1.944364   14.683451    ( 0.0000,  0.0000,  0.0000)
  29 Ti     6.998687    0.010830   14.601635    ( 0.0000,  0.0000,  0.0000)
  30 O      2.387231    0.014349   14.815967    ( 0.0000,  0.0000,  0.0000)
  31 O      7.570223    1.859213   14.781582    ( 0.0000,  0.0000,  0.0000)
  32 O      0.229379    1.910572   15.507730    ( 0.0000,  0.0000,  0.0000)
  33 O      5.376828   11.459782   15.432036    ( 0.0000,  0.0000,  0.0000)
  34 O      9.060129    0.008400   13.955612    ( 0.0000,  0.0000,  0.0000)
  35 O      3.824663    1.936037   13.989395    ( 0.0000,  0.0000,  0.0000)
  36 O      8.476572    5.733518    6.000000    ( 0.0000,  0.0000,  0.0000)
  37 O      3.305699    3.822345    6.000000    ( 0.0000,  0.0000,  0.0000)
  38 Ti     1.412752    3.822345    6.752957    ( 0.0000,  0.0000,  0.0000)
  39 Ti     6.583625    5.733518    6.752957    ( 0.0000,  0.0000,  0.0000)
  40 Ti     9.522250    5.733518    7.640878    ( 0.0000,  0.0000,  0.0000)
  41 Ti     4.351376    3.822345    7.640878    ( 0.0000,  0.0000,  0.0000)
  42 O      9.861551    3.822345    7.505914    ( 0.0000,  0.0000,  0.0000)
  43 O      4.690678    5.733518    7.505914    ( 0.0000,  0.0000,  0.0000)
  44 O      7.629303    5.733518    8.393834    ( 0.0000,  0.0000,  0.0000)
  45 O      2.458430    3.822345    8.393834    ( 0.0000,  0.0000,  0.0000)
  46 O      6.244323    3.822345    6.887921    ( 0.0000,  0.0000,  0.0000)
  47 O      1.073450    5.733518    6.887921    ( 0.0000,  0.0000,  0.0000)
  48 O      9.797424    5.735564    9.581628    ( 0.0000,  0.0000,  0.0000)
  49 O      4.637102    3.817924    9.610735    ( 0.0000,  0.0000,  0.0000)
  50 Ti     2.784798    3.816091   10.320409    ( 0.0000,  0.0000,  0.0000)
  51 Ti     7.934452    5.735170   10.387022    ( 0.0000,  0.0000,  0.0000)
  52 Ti     0.516800    5.732344   11.117062    ( 0.0000,  0.0000,  0.0000)
  53 Ti     5.725964    3.810373   11.222486    ( 0.0000,  0.0000,  0.0000)
  54 O      0.915991    3.821715   11.076466    ( 0.0000,  0.0000,  0.0000)
  55 O      6.101652    5.734585   11.112152    ( 0.0000,  0.0000,  0.0000)
  56 O      9.038035    5.735997   11.944762    ( 0.0000,  0.0000,  0.0000)
  57 O      3.838744    3.849475   11.944715    ( 0.0000,  0.0000,  0.0000)
  58 O      7.556131    3.817100   10.465662    ( 0.0000,  0.0000,  0.0000)
  59 O      2.385261    5.737235   10.439406    ( 0.0000,  0.0000,  0.0000)
  60 O      0.924022    5.744237   13.057535    ( 0.0000,  0.0000,  0.0000)
  61 O      6.031814    3.743424   13.180139    ( 0.0000,  0.0000,  0.0000)
  62 Ti     4.171332    3.801974   13.833829    ( 0.0000,  0.0000,  0.0000)
  63 Ti     9.369899    5.732976   13.973018    ( 0.0000,  0.0000,  0.0000)
  64 Ti     1.836365    5.743864   14.596393    ( 0.0000,  0.0000,  0.0000)
  65 Ti     7.185005    3.801002   14.820111    ( 0.0000,  0.0000,  0.0000)
  66 O      2.362585    3.846108   14.809794    ( 0.0000,  0.0000,  0.0000)
  67 O      7.539578    5.738093   14.627700    ( 0.0000,  0.0000,  0.0000)
  68 O      0.198469    5.736199   15.423323    ( 0.0000,  0.0000,  0.0000)
  69 O      5.186672    4.035767   15.492893    ( 0.0000,  0.0000,  0.0000)
  70 O      8.978733    3.798347   14.002300    ( 0.0000,  0.0000,  0.0000)
  71 O      3.782208    5.759722   13.925022    ( 0.0000,  0.0000,  0.0000)
  72 O      8.476572    9.555862    6.000000    ( 0.0000,  0.0000,  0.0000)
  73 O      3.305699    7.644690    6.000000    ( 0.0000,  0.0000,  0.0000)
  74 Ti     1.412752    7.644690    6.752957    ( 0.0000,  0.0000,  0.0000)
  75 Ti     6.583625    9.555862    6.752957    ( 0.0000,  0.0000,  0.0000)
  76 Ti     9.522250    9.555862    7.640878    ( 0.0000,  0.0000,  0.0000)
  77 Ti     4.351376    7.644690    7.640878    ( 0.0000,  0.0000,  0.0000)
  78 O      9.861551    7.644690    7.505914    ( 0.0000,  0.0000,  0.0000)
  79 O      4.690678    9.555862    7.505914    ( 0.0000,  0.0000,  0.0000)
  80 O      7.629303    9.555862    8.393834    ( 0.0000,  0.0000,  0.0000)
  81 O      2.458430    7.644690    8.393834    ( 0.0000,  0.0000,  0.0000)
  82 O      6.244323    7.644690    6.887921    ( 0.0000,  0.0000,  0.0000)
  83 O      1.073450    9.555862    6.887921    ( 0.0000,  0.0000,  0.0000)
  84 O      9.814683    9.559783    9.600786    ( 0.0000,  0.0000,  0.0000)
  85 O      4.640126    7.641730    9.608083    ( 0.0000,  0.0000,  0.0000)
  86 Ti     2.780645    7.653008   10.325155    ( 0.0000,  0.0000,  0.0000)
  87 Ti     7.970072    9.567758   10.367539    ( 0.0000,  0.0000,  0.0000)
  88 Ti     0.511963    9.543443   11.179869    ( 0.0000,  0.0000,  0.0000)
  89 Ti     5.718119    7.668698   11.213515    ( 0.0000,  0.0000,  0.0000)
  90 O      0.918710    7.653382   11.075636    ( 0.0000,  0.0000,  0.0000)
  91 O      6.096727    9.560880   11.079948    ( 0.0000,  0.0000,  0.0000)
  92 O      9.060725    9.556388   11.967478    ( 0.0000,  0.0000,  0.0000)
  93 O      3.842598    7.658285   11.942260    ( 0.0000,  0.0000,  0.0000)
  94 O      7.557578    7.652959   10.464412    ( 0.0000,  0.0000,  0.0000)
  95 O      2.392122    9.556846   10.455085    ( 0.0000,  0.0000,  0.0000)
  96 O      0.970030    9.551415   13.150731    ( 0.0000,  0.0000,  0.0000)
  97 O      6.033651    7.692506   13.190098    ( 0.0000,  0.0000,  0.0000)
  98 Ti     4.194061    7.608999   13.842759    ( 0.0000,  0.0000,  0.0000)
  99 Ti     9.439276    9.616981   14.012884    ( 0.0000,  0.0000,  0.0000)
 100 Ti     1.871927    9.531159   14.690475    ( 0.0000,  0.0000,  0.0000)
 101 Ti     7.211415    7.696789   14.813150    ( 0.0000,  0.0000,  0.0000)
 102 O      2.357872    7.653426   14.826117    ( 0.0000,  0.0000,  0.0000)
 103 O      7.575664    9.626157   14.776373    ( 0.0000,  0.0000,  0.0000)
 104 O      0.231474    9.590549   15.506310    ( 0.0000,  0.0000,  0.0000)
 105 O      5.190227    7.583926   15.533140    ( 0.0000,  0.0000,  0.0000)
 106 O      8.987286    7.683238   14.006201    ( 0.0000,  0.0000,  0.0000)
 107 O      3.817661    9.562703   13.971610    ( 0.0000,  0.0000,  0.0000)
 108 V      5.688199    4.138059   17.200652    ( 0.0000,  0.0000,  0.0000)
 109 V      5.752876    7.440454   17.213250    ( 0.0000,  0.0000,  0.0000)
 110 O      5.393084    5.791742   17.862747    ( 0.0000,  0.0000,  0.0000)
 111 O      7.361578    3.816025   16.712911    ( 0.0000,  0.0000,  0.0000)
 112 O      5.151686    8.641285   18.069970    ( 0.0000,  0.0000,  0.0000)
 113 O      4.972788    2.994926   18.048922    ( 0.0000,  0.0000,  0.0000)
 114 O      7.431949    7.647594   16.697474    ( 0.0000,  0.0000,  0.0000)

Unit cell:
           periodic     x           y           z      points  spacing
  1. axis:    yes   10.341746    0.000000    0.000000    54     0.1915
  2. axis:    yes   -0.000000   11.467000    0.000000    60     0.1911
  3. axis:    no     0.000000    0.000000   23.497201   125     0.1880

  Lengths:  10.341746  11.467000  23.497201
  Angles:   90.000000  90.000000  90.000000

Effective grid spacing dv^(1/3) = 0.1902

                     log10-error:    total        iterations:
           time      wfs    density  energy       fermi  poisson
iter:   1  04:22:42  -2.77   +inf  -955.879949    3             
iter:   2  04:23:36  -3.70  -3.20  -955.879410    2             
iter:   3  04:24:31  -3.48  -3.23  -955.870751    3             
iter:   4  04:25:25  -4.45  -3.42  -955.870202    2             
iter:   5  04:26:19  -4.96  -3.45  -955.869767    2             
iter:   6  04:27:14  -4.61  -3.50  -955.868914    2             
iter:   7  04:28:08  -5.00  -3.76  -955.868923    2             
iter:   8  04:29:03  -4.81  -3.80  -955.869301    2             
iter:   9  04:29:57  -5.04  -3.84  -955.868661    2             
iter:  10  04:30:52  -5.78  -4.17  -955.868674    1             
iter:  11  04:31:46  -6.45  -4.17  -955.868614    2             
iter:  12  04:32:41  -5.85  -4.28  -955.868625    1             
iter:  13  04:33:35  -6.72  -4.51  -955.868618    1             
iter:  14  04:34:29  -6.70  -4.56  -955.868599    1             
iter:  15  04:35:24  -6.81  -4.63  -955.868615    1             
iter:  16  04:36:18  -6.45  -4.67  -955.868598    1             
iter:  17  04:37:13  -7.37  -4.90  -955.868599    1             
iter:  18  04:38:07  -7.59  -4.99  -955.868600    1             

Converged after 18 iterations.

Dipole moment: (-17.501799, -1.985186, -1.428896) |e|*Ang

Energy contributions relative to reference atoms: (reference = -1044851.132452)

Kinetic:       +687.743327
Potential:     -876.836519
External:        +0.000000
XC:            -774.480798
Entropy (-ST):   -0.000500
Local:           +7.705640
--------------------------
Free energy:   -955.868850
Extrapolated:  -955.868600

Fermi level: -0.77236

Showing only first 2 kpts
 Kpt  Band  Eigenvalues  Occupancy
  0   458     -1.85232    0.22222
  0   459     -1.83709    0.22222
  0   460      0.08299    0.00004
  0   461      0.20892    0.00001

  1   458     -1.85066    0.44444
  1   459     -1.83325    0.44443
  1   460      0.27713    0.00001
  1   461      0.34780    0.00001



Forces in eV/Ang:
  0 O    -1.86833    0.00222    1.58041
  1 O    -1.93928   -0.00119    1.54364
  2 Ti    3.86683   -0.00027    1.93505
  3 Ti    3.77965    0.00395    1.92237
  4 Ti   -1.87996   -0.01338   -1.90854
  5 Ti   -1.87219    0.00013   -1.96576
  6 O     0.87121   -0.00151   -0.17878
  7 O     0.87651    0.04067   -0.20577
  8 O    -0.58886    0.00467   -0.55026
  9 O    -0.72821    0.01410   -0.66527
 10 O    -0.25599   -0.00539   -0.85267
 11 O    -0.25476    0.08258   -0.91016
 12 O    -0.07377   -0.00164   -0.04513
 13 O    -0.03141    0.00336    0.04641
 14 Ti    0.02659    0.00456    0.00247
 15 Ti    0.02926    0.03055    0.08006
 16 Ti   -0.01666   -0.05882   -0.09152
 17 Ti    0.01462   -0.00008    0.01682
 18 O     0.04586    0.00576    0.00554
 19 O     0.06134    0.00654   -0.04796
 20 O     0.03762    0.01192    0.04507
 21 O     0.04584   -0.00698    0.03327
 22 O     0.04983    0.01331    0.05803
 23 O     0.03515   -0.00198    0.07149
 24 O    -0.25757    0.00469   -0.52300
 25 O    -0.00066    0.01331    0.08251
 26 Ti   -0.24163    0.05429    0.10877
 27 Ti   -0.00259   -0.02019    0.20369
 28 Ti    0.06476   -0.21028   -0.00758
 29 Ti    0.06961   -0.02543   -0.08582
 30 O     0.13413   -0.01389    0.22517
 31 O    -0.03759    0.09747    0.02722
 32 O    -0.05742   -0.00505   -0.09801
 33 O     0.15409    0.01171    0.05187
 34 O    -0.04792    0.05042    0.08890
 35 O    -0.02882    0.03460    0.14392
 36 O    -1.89647    0.00050    1.55519
 37 O    -1.95270    0.00123    1.58561
 38 Ti    3.67822   -0.04159    1.73760
 39 Ti    3.84400   -0.00212    1.96307
 40 Ti   -1.97740   -0.00088   -1.97738
 41 Ti   -1.53206   -0.01270   -1.63935
 42 O     0.93296   -0.02066   -0.19548
 43 O     0.83582   -0.00745   -0.19626
 44 O    -0.68935    0.00071   -0.66965
 45 O    -0.71838    0.00786   -0.73475
 46 O    -0.30856   -0.01852   -0.88693
 47 O    -0.21379   -0.00469   -0.83981
 48 O    -0.04836    0.00250    0.02683
 49 O    -0.02164   -0.00311    0.01361
 50 Ti    0.02206    0.01914    0.01957
 51 Ti    0.05375    0.00292   -0.06568
 52 Ti    0.02299    0.01814    0.03838
 53 Ti   -0.04058    0.02389    0.02818
 54 O     0.05335    0.04256   -0.03028
 55 O     0.04394    0.00116    0.00698
 56 O     0.02125    0.00198    0.05203
 57 O     0.03316   -0.01167    0.13604
 58 O     0.04773    0.01997    0.08707
 59 O     0.01713   -0.00599   -0.00769
 60 O    -0.02113   -0.00038    0.03176
 61 O     0.01092   -0.01220    0.02384
 62 Ti   -0.22826   -0.07871   -0.06757
 63 Ti    0.12264    0.03116   -0.04783
 64 Ti   -0.00821    0.08789    0.04796
 65 Ti    0.08800   -0.00384   -0.12501
 66 O     0.05246    0.05605    0.09638
 67 O    -0.12380   -0.00511    0.18385
 68 O    -0.08796    0.00193   -0.03094
 69 O     0.19434   -0.01481    0.18018
 70 O    -0.13291    0.11267    0.28473
 71 O    -0.08116   -0.08423    0.02228
 72 O    -1.86812   -0.00169    1.58362
 73 O    -1.95014   -0.00358    1.58322
 74 Ti    3.69155    0.04474    1.75253
 75 Ti    3.76748   -0.00176    1.90983
 76 Ti   -1.85730    0.01456   -1.89755
 77 Ti   -1.55690    0.00948   -1.66572
 78 O     0.92823    0.03025   -0.19407
 79 O     0.88092   -0.04858   -0.20738
 80 O    -0.58738   -0.00537   -0.54699
 81 O    -0.70185    0.01552   -0.72498
 82 O    -0.30344    0.02413   -0.88677
 83 O    -0.26053   -0.07756   -0.91075
 84 O    -0.06423    0.00251   -0.05728
 85 O    -0.02574    0.00456    0.01432
 86 Ti    0.04536   -0.00211    0.03402
 87 Ti    0.00772   -0.02116    0.10877
 88 Ti   -0.03215    0.05091   -0.11545
 89 Ti   -0.03583   -0.02783    0.06670
 90 O     0.04906   -0.05489   -0.02469
 91 O     0.07456    0.00783   -0.04717
 92 O     0.04581    0.00129    0.02931
 93 O     0.04096    0.00809    0.13218
 94 O     0.04524   -0.01487    0.07875
 95 O     0.03429    0.00312    0.07018
 96 O    -0.33441   -0.01933   -0.65558
 97 O     0.02781    0.01374   -0.03146
 98 Ti   -0.31133    0.20413   -0.00752
 99 Ti    0.03437   -0.01036    0.33649
100 Ti    0.05736    0.26623   -0.00153
101 Ti    0.06074   -0.01554   -0.18013
102 O     0.09752   -0.23444    0.06752
103 O    -0.03094   -0.07777    0.00428
104 O    -0.10172    0.00302   -0.13611
105 O     0.23729   -0.04896    0.09515
106 O    -0.12853   -0.12380    0.27211
107 O    -0.01706   -0.09591    0.11495
108 V     0.09590    0.14799   -0.10618
109 V     0.05736   -0.12157   -0.12276
110 O    -0.05307   -0.01045    0.13574
111 O    -0.12048    0.00177    0.11011
112 O     0.13549   -0.05707    0.26886
113 O     0.16200   -0.00245    0.18953
114 O    -0.13499    0.01185    0.11228

System changes: positions 

Initializing position-dependent things.

Density initialized from wave functions
                                                
                                                
                                                
                                                
                                                
                                                
                         O                      
                          V O                   
              O         O     O                 
                  Ti O   Oi     O               
                  O   O V   OOTi    Ti          
           O   O                  O             
               Ti     Oi   O O                  
         O     O    OTi    Ti    OTiO           
             Tii   OTi    OOO   O               
             OO   O     O Ti   TiOi             
          O Ti     Oi   TiO  O O     O          
            O   O      Ti     TiO               
                TiO      O  O  O   O Ti         
         Ti   O O    O Oi    Ti     O           
         O     Ti    Ti    OTi    Ti            
             O O    O O         O               
                    Ti     Oi     O             
             Oi     O    O      Ti              
           O     OTi    Ti     O                
          Ti          O      O                  
               O                                
                                                
                                                
                                                
                                                

Positions:
   0 O      8.476572    1.911173    6.000000    ( 0.0000,  0.0000,  0.0000)
   1 O      3.305699    0.000000    6.000000    ( 0.0000,  0.0000,  0.0000)
[...]
   1 O      3.305699    0.000000    6.000000    ( 0.0000,  0.0000,  0.0000)
   2 Ti     1.412752    0.000000    6.752957    ( 0.0000,  0.0000,  0.0000)
   3 Ti     6.583625    1.911173    6.752957    ( 0.0000,  0.0000,  0.0000)
   4 Ti     9.522250    1.911173    7.640878    ( 0.0000,  0.0000,  0.0000)
   5 Ti     4.351376    0.000000    7.640878    ( 0.0000,  0.0000,  0.0000)
   6 O      9.861551    0.000000    7.505914    ( 0.0000,  0.0000,  0.0000)
   7 O      4.690678    1.911173    7.505914    ( 0.0000,  0.0000,  0.0000)
   8 O      7.629303    1.911173    8.393834    ( 0.0000,  0.0000,  0.0000)
   9 O      2.458430    0.000000    8.393834    ( 0.0000,  0.0000,  0.0000)
  10 O      6.244323    0.000000    6.887921    ( 0.0000,  0.0000,  0.0000)
  11 O      1.073450    1.911173    6.887921    ( 0.0000,  0.0000,  0.0000)
  12 O      9.793918    1.921150    9.605767    ( 0.0000,  0.0000,  0.0000)
  13 O      4.625547   11.475598    9.608960    ( 0.0000,  0.0000,  0.0000)
  14 Ti     2.777566   11.478037   10.405008    ( 0.0000,  0.0000,  0.0000)
  15 Ti     7.951579    1.917130   10.403037    ( 0.0000,  0.0000,  0.0000)
  16 Ti     0.501579    1.933740   11.161712    ( 0.0000,  0.0000,  0.0000)
  17 Ti     5.655267    0.011444   11.174805    ( 0.0000,  0.0000,  0.0000)
  18 O      0.922245    0.011229   11.079113    ( 0.0000,  0.0000,  0.0000)
  19 O      6.087995    1.922564   11.099677    ( 0.0000,  0.0000,  0.0000)
  20 O      9.046273    1.929089   11.987247    ( 0.0000,  0.0000,  0.0000)
  21 O      3.861306    0.016052   11.997148    ( 0.0000,  0.0000,  0.0000)
  22 O      7.566579   11.477953   10.503197    ( 0.0000,  0.0000,  0.0000)
  23 O      2.408733    1.926869   10.500557    ( 0.0000,  0.0000,  0.0000)
  24 O      0.927582    1.928191   13.128789    ( 0.0000,  0.0000,  0.0000)
  25 O      6.079945   11.487547   13.125139    ( 0.0000,  0.0000,  0.0000)
  26 Ti     4.204993   11.485252   14.084961    ( 0.0000,  0.0000,  0.0000)
  27 Ti     9.404980    1.899206   14.061578    ( 0.0000,  0.0000,  0.0000)
  28 Ti     1.849484    1.938327   14.665405    ( 0.0000,  0.0000,  0.0000)
  29 Ti     7.008929    0.023866   14.649313    ( 0.0000,  0.0000,  0.0000)
  30 O      2.369659    0.021852   14.863494    ( 0.0000,  0.0000,  0.0000)
  31 O      7.545053    1.893642   14.821714    ( 0.0000,  0.0000,  0.0000)
  32 O      0.219471    1.923958   15.510546    ( 0.0000,  0.0000,  0.0000)
  33 O      5.391896   11.478756   15.512027    ( 0.0000,  0.0000,  0.0000)
  34 O      9.026983    0.025808   14.070287    ( 0.0000,  0.0000,  0.0000)
  35 O      3.821504    1.938946   14.106643    ( 0.0000,  0.0000,  0.0000)
  36 O      8.476572    5.733518    6.000000    ( 0.0000,  0.0000,  0.0000)
  37 O      3.305699    3.822345    6.000000    ( 0.0000,  0.0000,  0.0000)
  38 Ti     1.412752    3.822345    6.752957    ( 0.0000,  0.0000,  0.0000)
  39 Ti     6.583625    5.733518    6.752957    ( 0.0000,  0.0000,  0.0000)
  40 Ti     9.522250    5.733518    7.640878    ( 0.0000,  0.0000,  0.0000)
  41 Ti     4.351376    3.822345    7.640878    ( 0.0000,  0.0000,  0.0000)
  42 O      9.861551    3.822345    7.505914    ( 0.0000,  0.0000,  0.0000)
  43 O      4.690678    5.733518    7.505914    ( 0.0000,  0.0000,  0.0000)
  44 O      7.629303    5.733518    8.393834    ( 0.0000,  0.0000,  0.0000)
  45 O      2.458430    3.822345    8.393834    ( 0.0000,  0.0000,  0.0000)
  46 O      6.244323    3.822345    6.887921    ( 0.0000,  0.0000,  0.0000)
  47 O      1.073450    5.733518    6.887921    ( 0.0000,  0.0000,  0.0000)
  48 O      9.787366    5.741146    9.600824    ( 0.0000,  0.0000,  0.0000)
  49 O      4.629996    3.835427    9.647283    ( 0.0000,  0.0000,  0.0000)
  50 Ti     2.803885    3.830061   10.350655    ( 0.0000,  0.0000,  0.0000)
  51 Ti     7.940484    5.744723   10.397751    ( 0.0000,  0.0000,  0.0000)
  52 Ti     0.515216    5.742341   11.143299    ( 0.0000,  0.0000,  0.0000)
  53 Ti     5.702139    3.827624   11.289051    ( 0.0000,  0.0000,  0.0000)
  54 O      0.917415    3.833151   11.072525    ( 0.0000,  0.0000,  0.0000)
  55 O      6.095752    5.745180   11.153608    ( 0.0000,  0.0000,  0.0000)
  56 O      9.045137    5.749198   11.976239    ( 0.0000,  0.0000,  0.0000)
  57 O      3.831874    3.845528   12.022196    ( 0.0000,  0.0000,  0.0000)
  58 O      7.551971    3.834668   10.521865    ( 0.0000,  0.0000,  0.0000)
  59 O      2.407555    5.742898   10.490522    ( 0.0000,  0.0000,  0.0000)
  60 O      0.917977    5.752352   13.098771    ( 0.0000,  0.0000,  0.0000)
  61 O      6.013592    3.784506   13.248915    ( 0.0000,  0.0000,  0.0000)
  62 Ti     4.168111    3.848993   13.940966    ( 0.0000,  0.0000,  0.0000)
  63 Ti     9.365308    5.757516   14.001017    ( 0.0000,  0.0000,  0.0000)
  64 Ti     1.815847    5.754379   14.645927    ( 0.0000,  0.0000,  0.0000)
  65 Ti     7.185803    3.828675   14.866942    ( 0.0000,  0.0000,  0.0000)
  66 O      2.338129    3.846528   14.844191    ( 0.0000,  0.0000,  0.0000)
  67 O      7.507115    5.760695   14.647305    ( 0.0000,  0.0000,  0.0000)
  68 O      0.178992    5.758713   15.462360    ( 0.0000,  0.0000,  0.0000)
  69 O      5.216668    3.967969   15.628642    ( 0.0000,  0.0000,  0.0000)
  70 O      8.976760    3.827508   14.092259    ( 0.0000,  0.0000,  0.0000)
  71 O      3.790655    5.757563   14.070528    ( 0.0000,  0.0000,  0.0000)
  72 O      8.476572    9.555862    6.000000    ( 0.0000,  0.0000,  0.0000)
  73 O      3.305699    7.644690    6.000000    ( 0.0000,  0.0000,  0.0000)
  74 Ti     1.412752    7.644690    6.752957    ( 0.0000,  0.0000,  0.0000)
  75 Ti     6.583625    9.555862    6.752957    ( 0.0000,  0.0000,  0.0000)
  76 Ti     9.522250    9.555862    7.640878    ( 0.0000,  0.0000,  0.0000)
  77 Ti     4.351376    7.644690    7.640878    ( 0.0000,  0.0000,  0.0000)
  78 O      9.861551    7.644690    7.505914    ( 0.0000,  0.0000,  0.0000)
  79 O      4.690678    9.555862    7.505914    ( 0.0000,  0.0000,  0.0000)
  80 O      7.629303    9.555862    8.393834    ( 0.0000,  0.0000,  0.0000)
  81 O      2.458430    7.644690    8.393834    ( 0.0000,  0.0000,  0.0000)
  82 O      6.244323    7.644690    6.887921    ( 0.0000,  0.0000,  0.0000)
  83 O      1.073450    9.555862    6.887921    ( 0.0000,  0.0000,  0.0000)
  84 O      9.794133    9.561935    9.605114    ( 0.0000,  0.0000,  0.0000)
  85 O      4.630376    7.647685    9.645657    ( 0.0000,  0.0000,  0.0000)
  86 Ti     2.802587    7.657292   10.351104    ( 0.0000,  0.0000,  0.0000)
  87 Ti     7.951768    9.573533   10.402464    ( 0.0000,  0.0000,  0.0000)
  88 Ti     0.502928    9.553004   11.160195    ( 0.0000,  0.0000,  0.0000)
  89 Ti     5.701859    7.663061   11.284962    ( 0.0000,  0.0000,  0.0000)
  90 O      0.917379    7.654846   11.072131    ( 0.0000,  0.0000,  0.0000)
  91 O      6.088501    9.568398   11.098305    ( 0.0000,  0.0000,  0.0000)
  92 O      9.046552    9.573264   11.986089    ( 0.0000,  0.0000,  0.0000)
  93 O      3.831612    7.655811   12.019157    ( 0.0000,  0.0000,  0.0000)
  94 O      7.552695    7.653404   10.521104    ( 0.0000,  0.0000,  0.0000)
  95 O      2.407958    9.560265   10.499503    ( 0.0000,  0.0000,  0.0000)
  96 O      0.927991    9.577529   13.126297    ( 0.0000,  0.0000,  0.0000)
  97 O      6.013155    7.730410   13.243652    ( 0.0000,  0.0000,  0.0000)
  98 Ti     4.166634    7.660491   13.939281    ( 0.0000,  0.0000,  0.0000)
  99 Ti     9.406216    9.618702   14.056929    ( 0.0000,  0.0000,  0.0000)
 100 Ti     1.848575    9.570229   14.663855    ( 0.0000,  0.0000,  0.0000)
 101 Ti     7.187392    7.692155   14.855815    ( 0.0000,  0.0000,  0.0000)
 102 O      2.336250    7.663912   14.844573    ( 0.0000,  0.0000,  0.0000)
 103 O      7.549123    9.624405   14.811209    ( 0.0000,  0.0000,  0.0000)
 104 O      0.218304    9.600951   15.507369    ( 0.0000,  0.0000,  0.0000)
 105 O      5.214743    7.598755   15.625224    ( 0.0000,  0.0000,  0.0000)
 106 O      8.980511    7.687513   14.089358    ( 0.0000,  0.0000,  0.0000)
 107 O      3.814676    9.572093   14.098529    ( 0.0000,  0.0000,  0.0000)
 108 V      5.830078    4.156289   17.316119    ( 0.0000,  0.0000,  0.0000)
 109 V      5.831984    7.419127   17.311788    ( 0.0000,  0.0000,  0.0000)
 110 O      5.509577    5.788727   18.017448    ( 0.0000,  0.0000,  0.0000)
 111 O      7.473762    3.926065   16.750356    ( 0.0000,  0.0000,  0.0000)
 112 O      5.356948    8.589631   18.281080    ( 0.0000,  0.0000,  0.0000)
 113 O      5.343561    2.997686   18.292947    ( 0.0000,  0.0000,  0.0000)
 114 O      7.475961    7.628193   16.742703    ( 0.0000,  0.0000,  0.0000)

Unit cell:
           periodic     x           y           z      points  spacing
  1. axis:    yes   10.341746    0.000000    0.000000    54     0.1915
  2. axis:    yes   -0.000000   11.467000    0.000000    60     0.1911
  3. axis:    no     0.000000    0.000000   23.497201   125     0.1880

  Lengths:  10.341746  11.467000  23.497201
  Angles:   90.000000  90.000000  90.000000

Effective grid spacing dv^(1/3) = 0.1902

                     log10-error:    total        iterations:
           time      wfs    density  energy       fermi  poisson
iter:   1  02:28:02  -5.01   +inf  -956.167820    2             
iter:   2  02:28:57  -5.93  -4.35  -956.167794    1             
iter:   3  02:29:52  -5.09  -4.36  -956.167785    2             
iter:   4  02:30:46  -6.21  -4.53  -956.167701    2             
iter:   5  02:31:41  -6.65  -4.58  -956.167719    1             
iter:   6  02:32:35  -6.23  -4.54  -956.167692    1             
iter:   7  02:33:30  -6.62  -4.80  -956.167692    1             
iter:   8  02:34:25  -6.61  -4.96  -956.167689    1             
iter:   9  02:35:19  -7.59  -5.20  -956.167686    1             

Converged after 9 iterations.

Dipole moment: (-19.755355, -17.353587, -1.606627) |e|*Ang

Energy contributions relative to reference atoms: (reference = -1044851.132452)

Kinetic:       +671.769555
Potential:     -864.375880
External:        +0.000000
XC:            -771.275712
Entropy (-ST):   -0.000477
Local:           +7.714590
--------------------------
Free energy:   -956.167925
Extrapolated:  -956.167686

Fermi level: -0.78916

Showing only first 2 kpts
 Kpt  Band  Eigenvalues  Occupancy
  0   458     -1.86388    0.22222
  0   459     -1.86254    0.22222
  0   460      0.06587    0.00004
  0   461      0.21006    0.00001

  1   458     -1.87931    0.44444
  1   459     -1.85301    0.44443
  1   460      0.26331    0.00001
  1   461      0.34683    0.00001



Forces in eV/Ang:
  0 O    -1.83542    0.00695    1.59125
  1 O    -1.83690    0.00152    1.58609
  2 Ti    3.87031    0.00045    2.01132
  3 Ti    3.86358   -0.02353    1.99499
  4 Ti   -2.00275   -0.03700   -1.88949
  5 Ti   -1.97505   -0.00248   -1.84745
  6 O     0.88402    0.01235   -0.15863
  7 O     0.84432    0.07942   -0.14085
  8 O    -0.64411    0.03178   -0.46892
  9 O    -0.65678    0.01410   -0.53785
 10 O    -0.29013    0.00049   -0.89519
 11 O    -0.25625    0.08833   -0.89877
 12 O    -0.00020    0.00224    0.00041
 13 O     0.00126    0.00209   -0.00114
 14 Ti    0.00123    0.00057   -0.00135
 15 Ti    0.00101   -0.00083   -0.00113
 16 Ti    0.00144   -0.00118   -0.00004
 17 Ti   -0.00139    0.00090   -0.00018
 18 O     0.00070    0.00122   -0.00063
 19 O     0.00099    0.00094   -0.00156
 20 O     0.00234    0.00275    0.00085
 21 O     0.00066    0.00170   -0.00259
 22 O     0.00552    0.00211    0.00006
 23 O     0.00044    0.00156   -0.00062
 24 O    -0.00254    0.00172   -0.00317
 25 O    -0.00283    0.00315    0.00001
 26 Ti   -0.00220    0.00096   -0.00068
 27 Ti    0.00248    0.00273   -0.00133
 28 Ti    0.00341    0.00042    0.00155
 29 Ti   -0.00210   -0.00022    0.00153
 30 O    -0.00016    0.00151   -0.00096
 31 O    -0.00233    0.00404    0.00030
 32 O    -0.00093    0.00361   -0.00071
 33 O     0.00157    0.00264   -0.00056
 34 O     0.00010    0.00129   -0.00126
 35 O     0.00159    0.00292   -0.00032
 36 O    -1.85685    0.00106    1.59077
 37 O    -1.83135    0.00725    1.63641
 38 Ti    3.69030   -0.05326    1.83825
 39 Ti    3.84946    0.00229    1.96545
 40 Ti   -1.98741   -0.00085   -1.88756
 41 Ti   -1.69186   -0.02911   -1.51976
 42 O     0.93243    0.02522   -0.17584
 43 O     0.82824    0.00753   -0.14261
 44 O    -0.69346    0.01303   -0.51475
 45 O    -0.64270    0.01414   -0.52651
 46 O    -0.33378    0.02263   -0.83731
 47 O    -0.23595   -0.00161   -0.87257
 48 O    -0.00033    0.00122   -0.00151
 49 O     0.00098    0.00089    0.00125
 50 Ti    0.00002    0.00083    0.00029
 51 Ti    0.00172    0.00130   -0.00138
 52 Ti    0.00105    0.00120    0.00059
 53 Ti   -0.00136    0.00095   -0.00173
 54 O     0.00173    0.00207   -0.00014
 55 O    -0.00011    0.00002   -0.00004
 56 O     0.00096    0.00279   -0.00274
 57 O     0.00043    0.00141   -0.00134
 58 O     0.00048    0.00158   -0.00218
 59 O     0.00544    0.00112   -0.00018
 60 O    -0.00105    0.00259   -0.00467
 61 O     0.00020    0.00084   -0.00205
 62 Ti   -0.00179    0.00107   -0.00006
 63 Ti    0.00225    0.00414    0.00077
 64 Ti    0.00116    0.00141    0.00150
 65 Ti   -0.00046    0.00008   -0.00512
 66 O     0.00102    0.00241   -0.00367
 67 O    -0.00087    0.00177   -0.00261
 68 O     0.00116    0.00514   -0.00101
 69 O     0.00323    0.00110   -0.00033
 70 O     0.00316    0.00379   -0.00098
 71 O     0.00454   -0.00146    0.00075
 72 O    -1.83738   -0.00449    1.59024
 73 O    -1.83411   -0.00522    1.63421
 74 Ti    3.69374    0.05683    1.83935
 75 Ti    3.86320    0.02597    1.99351
 76 Ti   -2.00036    0.03178   -1.89321
 77 Ti   -1.69340    0.03009   -1.52451
 78 O     0.93163   -0.00576   -0.17561
 79 O     0.84457   -0.05536   -0.14068
 80 O    -0.64436   -0.00113   -0.46858
 81 O    -0.64403    0.01178   -0.53101
 82 O    -0.33207   -0.02259   -0.84021
 83 O    -0.25627   -0.08655   -0.89806
 84 O    -0.00039   -0.00011   -0.00015
 85 O    -0.00094    0.00167   -0.00049
 86 Ti    0.00030    0.00190   -0.00072
 87 Ti    0.00160    0.00138   -0.00143
 88 Ti    0.00083    0.00155   -0.00053
 89 Ti   -0.00126    0.00248    0.00268
 90 O     0.00251    0.00033   -0.00124
 91 O    -0.00038    0.00188   -0.00072
 92 O     0.00202    0.00140   -0.00093
 93 O     0.00049    0.00068   -0.00137
 94 O     0.00120    0.00116   -0.00180
 95 O     0.00274    0.00047   -0.00114
 96 O    -0.00175    0.00290   -0.00384
 97 O    -0.00160    0.00465   -0.00393
 98 Ti   -0.00017    0.00317   -0.00091
 99 Ti    0.00231   -0.00042    0.00046
100 Ti    0.00245    0.00102    0.00245
101 Ti   -0.00074    0.00260    0.00737
102 O     0.00099    0.00114   -0.00427
103 O    -0.00353    0.00158   -0.00237
104 O    -0.00243    0.00143   -0.00277
105 O     0.00240    0.00345    0.00166
106 O     0.00178   -0.00019   -0.00066
107 O     0.00162    0.00018    0.00009
108 V    -0.00116    0.00696   -0.00119
109 V     0.00664    0.00382    0.00254
110 O    -0.00524   -0.00027   -0.00064
111 O     0.00028    0.00279   -0.00295
112 O    -0.00222    0.00510    0.00425
113 O     0.00414    0.00575   -0.00353
114 O    -0.00106    0.00273    0.00306

Timing:                                      incl.     excl.
-------------------------------------------------------------------
Density initialized from wave functions:   240.143   240.141   0.3% |
 Symmetrize density:                         0.002     0.002   0.0% |
Forces:                                   1591.180  1591.180   1.9% ||
Hamiltonian:                                86.097     1.696   0.0% |
 Atomic:                                    23.046     0.185   0.0% |
  XC Correction:                            22.861    22.861   0.0% |
 Calculate atomic Hamiltonians:             42.976    42.976   0.1% |
 Communicate:                                4.314     4.314   0.0% |
 Initialize Hamiltonian:                     0.001     0.001   0.0% |
 Poisson:                                    0.101     0.101   0.0% |
 XC 3D grid:                                13.963    13.963   0.0% |
LCAO initialization:                       188.121     1.584   0.0% |
 LCAO eigensolver:                          64.400     0.100   0.0% |
  Calculate projections:                     0.000     0.000   0.0% |
  DenseAtomicCorrection:                     0.001     0.001   0.0% |
  Distribute overlap matrix:                 5.154     5.154   0.0% |
  Orbital Layouts:                          52.892    52.892   0.1% |
  Potential matrix:                          0.040     0.040   0.0% |
  Sum over cells:                            6.213     6.213   0.0% |
 LCAO to grid:                             116.799   116.799   0.1% |
 Set positions (LCAO WFS):                   5.337     4.414   0.0% |
  Basic WFS set positions:                   0.003     0.003   0.0% |
  Basis functions set positions:             0.001     0.001   0.0% |
  P tci:                                     0.035     0.035   0.0% |
  ST tci:                                    0.610     0.610   0.0% |
  mktci:                                     0.274     0.274   0.0% |
PWDescriptor:                                0.178     0.178   0.0% |
Redistribute:                                0.161     0.161   0.0% |
SCF-cycle:                               81926.607     2.177   0.0% |
 Davidson:                               77913.427 18494.048  21.9% |--------|
  Apply H:                               11306.297 10863.187  12.9% |----|
   HMM T:                                  443.110   443.110   0.5% |
  Subspace diag:                          8677.903     1.013   0.0% |
   calc_h_matrix:                         5093.755  1337.866   1.6% ||
    Apply H:                              3755.888  3596.834   4.3% |-|
     HMM T:                                159.055   159.055   0.2% |
   diagonalize:                           1104.711  1104.711   1.3% ||
   rotate_psi:                            2478.423  2478.423   2.9% ||
  calc. matrices:                        17405.932  9966.732  11.8% |----|
   Apply H:                               7439.200  7163.267   8.5% |--|
    HMM T:                                 275.933   275.933   0.3% |
  diagonalize:                           16748.395 16748.395  19.8% |-------|
  rotate_psi:                             5280.853  5280.853   6.3% |--|
 Density:                                 2519.492     0.037   0.0% |
  Atomic density matrices:                  16.309    16.309   0.0% |
  Mix:                                     518.024   518.024   0.6% |
  Multipole moments:                         0.514     0.514   0.0% |
  Pseudo density:                         1984.608  1984.582   2.3% ||
   Symmetrize density:                       0.026     0.026   0.0% |
 Hamiltonian:                              892.473    17.474   0.0% |
  Atomic:                                  238.554     1.745   0.0% |
   XC Correction:                          236.808   236.808   0.3% |
  Calculate atomic Hamiltonians:           445.713   445.713   0.5% |
  Communicate:                              45.298    45.298   0.1% |
  Poisson:                                   0.988     0.988   0.0% |
  XC 3D grid:                              144.446   144.446   0.2% |
 Orthonormalize:                           599.038     0.148   0.0% |
  calc_s_matrix:                            57.507    57.507   0.1% |
  inverse-cholesky:                         50.310    50.310   0.1% |
  projections:                             382.595   382.595   0.5% |
  rotate_psi_s:                            108.477   108.477   0.1% |
Set symmetry:                                0.001     0.001   0.0% |
Other:                                     446.113   446.113   0.5% |
-------------------------------------------------------------------
Total:                                             84478.600 100.0%

Memory usage: 1.33 GiB
Date: Sun May 26 02:35:31 2019
