
  ___ ___ ___ _ _ _  
 |   |   |_  | | | | 
 | | | | | . | | | | 
 |__ |  _|___|_____|  1.5.2
 |___|_|             

User:   jensj@sylg.fysik.dtu.dk
Date:   Wed Jul 10 04:21:07 2019
Arch:   x86_64
Pid:    7288
Python: 3.6.6
gpaw:   /scratch/jensj/web-pages/gpaw/venv/lib/python3.6/site-packages/gpaw
_gpaw:  /scratch/jensj/web-pages/gpaw/venv/lib/python3.6/site-packages/
        _gpaw.cpython-36m-x86_64-linux-gnu.so (ef22b7ef8c)
ase:    /scratch/jensj/web-pages/gpaw/venv/lib/python3.6/site-packages/ase (version 3.17.0)
numpy:  /scratch/jensj/web-pages/gpaw/venv/lib/python3.6/site-packages/numpy (version 1.16.4)
scipy:  /scratch/jensj/web-pages/gpaw/venv/lib/python3.6/site-packages/scipy (version 1.3.0)
units:  Angstrom and eV
cores:  1

Input parameters:
  nbands: 2

System changes: positions, numbers, cell, pbc, initial_charges, initial_magmoms 

Initialize ...

H-setup:
  name: Hydrogen
  id: 4766778ce56282eaa64abeb28b7c1de3
  Z: 1
  valence: 1
  core: 0
  charge: 0.0
  file: /home/niflheim/jensj/gpaw-setups-0.9.20000/H.LDA.gz
  cutoffs: 0.48(comp), 0.85(filt), 0.53(core), lmax=2
  valence states:
                energy  radius
    1s(1.00)    -6.353   0.476
    *s          20.858   0.476
    *p           0.000   0.476

  Using partial waves for H as LCAO basis

Reference energy: -24.257917

Spin-paired calculation

Occupation numbers:
  Fermi-Dirac: width=0.0000 eV

Convergence criteria:
  Maximum total energy change: 0.0005 eV / electron
  Maximum integral of absolute density change: 0.0001 electrons
  Maximum integral of absolute eigenstate change: 4e-08 eV^2
  Maximum number of iterations: 333

Symmetries present (total): 1

  ( 1  0  0)
  ( 0  1  0)
  ( 0  0  1)

1 k-point (Gamma)
1 k-point in the irreducible part of the Brillouin zone
       k-points in crystal coordinates                weights
   0:     0.00000000    0.00000000    0.00000000          1/1

Wave functions: Uniform real-space grid
  Kinetic energy operator: 6*3+1=19 point O(h^6) finite-difference Laplacian
  ScaLapack parameters: grid=1x1, blocksize=None
  Wavefunction extrapolation:
    Improved wavefunction reuse through dual PAW basis 

Eigensolver
   Davidson(niter=2, smin=None, normalize=True) 

Densities:
  Coarse grid: 28*28*28 grid
  Fine grid: 56*56*56 grid
  Total Charge: 0.000000 

Density mixing:
  Method: separate
  Backend: pulay
  Linear mixing parameter: 0.25
  Mixing with 3 old densities
  No damping of long wave oscillations 

Hamiltonian:
  XC and Coulomb potentials evaluated on a 56*56*56 grid
  Using the LDA Exchange-Correlation functional
  Interpolation: tri-quintic (5. degree polynomial)
  Poisson solver: FastPoissonSolver using
    6*3+1=19 point O(h^6) finite-difference Laplacian stencil;
    FFT axes: [];
    FST axes: [0, 1, 2].
 

Memory estimate:
  Process memory now: 129.93 MiB
  Calculator: 9.51 MiB
    Density: 5.41 MiB
      Arrays: 4.11 MiB
      Localized functions: 0.41 MiB
      Mixer: 0.90 MiB
    Hamiltonian: 2.72 MiB
      Arrays: 2.69 MiB
      XC: 0.00 MiB
      Poisson: 0.00 MiB
      vbar: 0.03 MiB
    Wavefunctions: 1.37 MiB
      Arrays psit_nG: 0.30 MiB
      Eigensolver: 1.05 MiB
      Projections: 0.00 MiB
      Projectors: 0.02 MiB

Total number of cores used: 1

Number of atoms: 2
Number of atomic orbitals: 2
Number of bands in calculation: 2
Bands to converge: occupied states only
Number of valence electrons: 2

... initialized

Initializing position-dependent things.

Density initialized from atomic densities
Creating initial wave functions:
  2 bands from LCAO basis set

     .--------------.  
    /|              |  
   / |              |  
  /  |              |  
 *   |              |  
 |   |    H         |  
 |   |    H         |  
 |   .--------------.  
 |  /              /   
 | /              /    
 |/              /     
 *--------------*      

Positions:
   0 H      3.000000    3.000000    2.630000    ( 0.0000,  0.0000,  0.0000)
   1 H      3.000000    3.000000    3.370000    ( 0.0000,  0.0000,  0.0000)

Unit cell:
           periodic     x           y           z      points  spacing
  1. axis:    no     6.000000    0.000000    0.000000    28     0.2143
  2. axis:    no     0.000000    6.000000    0.000000    28     0.2143
  3. axis:    no     0.000000    0.000000    6.000000    28     0.2143

  Lengths:   6.000000   6.000000   6.000000
  Angles:   90.000000  90.000000  90.000000

Effective grid spacing dv^(1/3) = 0.2143

                     log10-error:    total        iterations:
           time      wfs    density  energy       fermi  poisson
iter:   1  04:21:09  +1.90   +inf    -7.321511    0      1      
iter:   2  04:21:09  +0.17  -0.42    -7.002857    0      1      
iter:   3  04:21:09  +0.54  -0.54    -6.679721    0      1      
iter:   4  04:21:09  -0.25  -0.96    -6.625545    0      1      
iter:   5  04:21:09  -0.96  -1.88    -6.626540    0      1      
iter:   6  04:21:09  -2.20  -1.93    -6.626171    0      1      
iter:   7  04:21:10  -3.47  -2.37    -6.626104    0      1      
iter:   8  04:21:10  -3.85  -2.95    -6.626104    0      1      
iter:   9  04:21:10  -5.22  -3.54    -6.626104    0      1      
iter:  10  04:21:10  -6.05  -3.76    -6.626106    0      1      
iter:  11  04:21:10  -6.05  -3.79    -6.626106    0      1      
iter:  12  04:21:10  -7.19  -4.63    -6.626106    0      1      
iter:  13  04:21:10  -7.80  -5.00    -6.626106    0      1      

Converged after 13 iterations.

Dipole moment: (-0.000000, -0.000000, -0.000000) |e|*Ang

Energy contributions relative to reference atoms: (reference = -24.257917)

Kinetic:         +7.310284
Potential:       -8.721286
External:        +0.000000
XC:              -5.162395
Entropy (-ST):   +0.000000
Local:           -0.052709
--------------------------
Free energy:     -6.626106
Extrapolated:    -6.626106

Fermi level: -4.35472

 Band  Eigenvalues  Occupancy
    0    -10.22794    2.00000
    1      1.51850    0.00000


Forces in eV/Ang:
  0 H    -0.00000   -0.00000   -0.84745
  1 H     0.00000    0.00000    0.84745

Timing:                              incl.     excl.
-----------------------------------------------------------
Forces:                              0.003     0.003   0.1% |
Hamiltonian:                         0.073     0.000   0.0% |
 Atomic:                             0.013     0.001   0.0% |
  XC Correction:                     0.013     0.013   0.5% |
 Calculate atomic Hamiltonians:      0.001     0.001   0.0% |
 Communicate:                        0.000     0.000   0.0% |
 Hartree integrate/restrict:         0.001     0.001   0.0% |
 Initialize Hamiltonian:             0.000     0.000   0.0% |
 Poisson:                            0.023     0.001   0.0% |
  Communicate bwd 0:                 0.002     0.002   0.1% |
  Communicate bwd 1:                 0.001     0.001   0.1% |
  Communicate fwd 0:                 0.003     0.003   0.1% |
  Communicate fwd 1:                 0.003     0.003   0.1% |
  fft:                               0.004     0.004   0.2% |
  fft2:                              0.009     0.009   0.3% |
 XC 3D grid:                         0.031     0.031   1.1% |
 vbar:                               0.003     0.003   0.1% |
LCAO initialization:                 0.045     0.005   0.2% |
 LCAO eigensolver:                   0.003     0.000   0.0% |
  Calculate projections:             0.000     0.000   0.0% |
  DenseAtomicCorrection:             0.000     0.000   0.0% |
  Distribute overlap matrix:         0.000     0.000   0.0% |
  Orbital Layouts:                   0.002     0.002   0.1% |
  Potential matrix:                  0.001     0.001   0.0% |
 LCAO to grid:                       0.000     0.000   0.0% |
 Set positions (LCAO WFS):           0.037     0.001   0.0% |
  Basic WFS set positions:           0.000     0.000   0.0% |
  Basis functions set positions:     0.000     0.000   0.0% |
  P tci:                             0.035     0.035   1.3% ||
  ST tci:                            0.000     0.000   0.0% |
  mktci:                             0.001     0.001   0.0% |
SCF-cycle:                           1.246     0.005   0.2% |
 Davidson:                           0.181     0.052   1.9% ||
  Apply hamiltonian:                 0.039     0.039   1.4% ||
  Subspace diag:                     0.030     0.001   0.0% |
   calc_h_matrix:                    0.019     0.006   0.2% |
    Apply hamiltonian:               0.013     0.013   0.5% |
   diagonalize:                      0.007     0.007   0.3% |
   rotate_psi:                       0.002     0.002   0.1% |
  calc. matrices:                    0.053     0.027   1.0% |
   Apply hamiltonian:                0.026     0.026   0.9% |
  diagonalize:                       0.003     0.003   0.1% |
  rotate_psi:                        0.004     0.004   0.2% |
 Density:                            0.043     0.000   0.0% |
  Atomic density matrices:           0.006     0.006   0.2% |
  Mix:                               0.034     0.034   1.2% |
  Multipole moments:                 0.002     0.002   0.1% |
  Pseudo density:                    0.002     0.002   0.1% |
   Symmetrize density:               0.000     0.000   0.0% |
 Hamiltonian:                        0.972     0.001   0.0% |
  Atomic:                            0.185     0.007   0.3% |
   XC Correction:                    0.178     0.178   6.5% |--|
  Calculate atomic Hamiltonians:     0.005     0.005   0.2% |
  Communicate:                       0.000     0.000   0.0% |
  Hartree integrate/restrict:        0.012     0.012   0.5% |
  Poisson:                           0.300     0.009   0.3% |
   Communicate bwd 0:                0.026     0.026   0.9% |
   Communicate bwd 1:                0.022     0.022   0.8% |
   Communicate fwd 0:                0.025     0.025   0.9% |
   Communicate fwd 1:                0.027     0.027   1.0% |
   fft:                              0.063     0.063   2.3% ||
   fft2:                             0.129     0.129   4.7% |-|
  XC 3D grid:                        0.465     0.465  16.9% |------|
  vbar:                              0.004     0.004   0.1% |
 Orthonormalize:                     0.045     0.000   0.0% |
  calc_s_matrix:                     0.000     0.000   0.0% |
  inverse-cholesky:                  0.044     0.044   1.6% ||
  projections:                       0.000     0.000   0.0% |
  rotate_psi_s:                      0.000     0.000   0.0% |
Set symmetry:                        0.001     0.001   0.0% |
Other:                               1.374     1.374  50.1% |-------------------|
-----------------------------------------------------------
Total:                                         2.741 100.0%

Memory usage: 141.02 MiB
Date: Wed Jul 10 04:21:10 2019
