75
Lattice="10.341746277552646 0.0 0.0 -2.619435405085487e-16 7.64469 0.0 0.0 0.0 23.497200848665354" Properties=species:S:1:pos:R:3:forces:R:3 energy=-552.3331422127787 pbc="T T F"
O       8.47657182       1.91117250       6.00000000       0.00000000       0.00000000       0.00000000 
O       3.30569868       0.00000000       6.00000000       0.00000000       0.00000000       0.00000000 
Ti       1.41275186       0.00000000       6.75295684       0.00000000       0.00000000       0.00000000 
Ti       6.58362500       1.91117250       6.75295684       0.00000000       0.00000000       0.00000000 
Ti       9.52224953       1.91117250       7.64087763       0.00000000       0.00000000       0.00000000 
Ti       4.35137640       0.00000000       7.64087763       0.00000000       0.00000000       0.00000000 
O       9.86155132       0.00000000       7.50591367       0.00000000       0.00000000       0.00000000 
O       4.69067818       1.91117250       7.50591367       0.00000000       0.00000000       0.00000000 
O       7.62930272       1.91117250       8.39383447       0.00000000       0.00000000       0.00000000 
O       2.45842958       0.00000000       8.39383447       0.00000000       0.00000000       0.00000000 
O       6.24432321       0.00000000       6.88792080       0.00000000       0.00000000       0.00000000 
O       1.07345007       1.91117250       6.88792080       0.00000000       0.00000000       0.00000000 
O       9.81221450       1.92176173       9.58635842       0.00585242      -0.00520833       0.01255506 
O       4.62721201       7.64114917       9.59965701       0.01655486      -0.00324140       0.00263036 
Ti       2.71499930       7.62500623      10.31438009      -0.00081242      -0.01165572      -0.00892805 
Ti       7.92773610       1.90012797      10.36539483      -0.01181930      -0.00499195      -0.01579358 
Ti       0.48221789       1.90458716      11.13143875       0.02792104      -0.00469297      -0.00007762 
Ti       5.70412056       7.61297256      11.10154466       0.00864937       0.00656200      -0.01248453 
O       0.90013523       7.62748370      11.09292134      -0.00380922      -0.00756364       0.00644450 
O       6.09348792       1.89816554      11.07271996       0.00276826      -0.00755457      -0.00366409 
O       9.03124487       1.91463449      11.95842143       0.01272678      -0.00377673      -0.01251217 
O       3.84801606       0.00414993      11.97536634      -0.01633482       0.00503130       0.00941547 
O       7.55954407       7.62279394      10.45089980       0.01305729       0.00042264       0.02850499 
O       2.36791820       1.90098220      10.44136703      -0.00123540      -0.00280971       0.03136340 
O       0.93266443       1.90609579      13.09079263      -0.00453505      -0.00042792       0.02226065 
O       6.09280640       0.00548159      13.11045231      -0.00958144       0.00171064       0.01980444 
Ti       4.11053385       7.58663964      13.83366393      -0.00550419       0.00095050      -0.00214340 
Ti       9.40313197       1.89320121      13.99837262      -0.01163537      -0.00719284       0.03911712 
Ti       1.84473477       1.88346007      14.62864767      -0.01999995       0.00306740       0.01868088 
Ti       7.08057819       7.59649027      14.57848390       0.00699109      -0.00305535      -0.00218114 
O       2.37721094       0.00307567      14.77043956      -0.01613050       0.00680577       0.00565713 
O       7.51735024       1.88924090      14.82120635       0.00087911      -0.00209498       0.01827002 
O       0.21333485       1.90445470      15.45417997       0.01402273      -0.00006270       0.03264285 
O       5.40629952       7.24287695      15.56453152      -0.00751970       0.02965908       0.01486385 
O       8.98640515       7.62270386      13.97993416      -0.00600962       0.00598741       0.02086830 
O       3.92426455       1.88039021      14.13041314      -0.00844690       0.01094734       0.00823532 
O       8.47657182       5.73351750       6.00000000       0.00000000       0.00000000       0.00000000 
O       3.30569868       3.82234500       6.00000000       0.00000000       0.00000000       0.00000000 
Ti       1.41275186       3.82234500       6.75295684       0.00000000       0.00000000       0.00000000 
Ti       6.58362500       5.73351750       6.75295684       0.00000000       0.00000000       0.00000000 
Ti       9.52224953       5.73351750       7.64087763       0.00000000       0.00000000       0.00000000 
Ti       4.35137640       3.82234500       7.64087763       0.00000000       0.00000000       0.00000000 
O       9.86155132       3.82234500       7.50591367       0.00000000       0.00000000       0.00000000 
O       4.69067818       5.73351750       7.50591367       0.00000000       0.00000000       0.00000000 
O       7.62930272       5.73351750       8.39383447       0.00000000       0.00000000       0.00000000 
O       2.45842958       3.82234500       8.39383447       0.00000000       0.00000000       0.00000000 
O       6.24432321       3.82234500       6.88792080       0.00000000       0.00000000       0.00000000 
O       1.07345007       5.73351750       6.88792080       0.00000000       0.00000000       0.00000000 
O       9.81303063       5.70523191       9.61289363      -0.00677822      -0.00191628       0.02030388 
O       4.62525548       3.81945504       9.59677173       0.01612766      -0.00723511       0.00357950 
Ti       2.71993316       3.81772798      10.31237730       0.00231887      -0.00439864      -0.00343052 
Ti       8.03153493       5.71804471      10.32524694      -0.03332478      -0.00484637      -0.00308925 
Ti       0.51075573       5.71697667      11.30927270      -0.00801368      -0.00410792      -0.00470512 
Ti       5.70481844       3.83893719      11.09891642       0.00593071      -0.00544838      -0.01427525 
O       0.90565515       3.81595534      11.09366591      -0.00295527       0.00114679       0.00584544 
O       6.05462849       5.71939277      11.09707261       0.02925481      -0.00387010      -0.00137054 
O       9.05082472       5.70317597      11.98029074      -0.04562179      -0.00142345       0.00136083 
O       3.84998920       3.74780632      11.97253285      -0.01262119       0.01015642       0.01054298 
O       7.55399251       3.82541563      10.44570205       0.01296476      -0.00745192       0.02969672 
O       2.39499078       5.71961299      10.45939123      -0.00037215      -0.00392181       0.02319938 
O       0.92937929       5.69821836      13.21545028      -0.01265068      -0.00139110       0.02571469 
O       6.10243226       3.74280715      13.09183325       0.00052291      -0.01437639       0.01177723 
Ti       4.11956398       3.77142716      13.83012506      -0.00430243      -0.03278940       0.00672417 
Ti       9.49986712       5.70858545      14.03616594       0.00310720      -0.00454361       0.01724224 
Ti       1.91579341       5.69435042      15.01976677      -0.00189443       0.01046552      -0.01345054 
Ti       7.08398449       3.81002020      14.56306960       0.01417060       0.00153241      -0.01227699 
O       2.38295338       3.74834875      14.77110830      -0.02445982      -0.00339543      -0.01041489 
O       7.57717584       5.70470537      14.79737109      -0.02791814      -0.00229626       0.03573972 
O       0.19384664       5.69104753      15.59591273      -0.00259914       0.00235651      -0.01268189 
O       5.39892322       4.14021085      15.51786923      -0.00751024      -0.03174258       0.00719027 
O       8.98851737       3.79932984      13.98083649      -0.00583053      -0.01463985       0.02050058 
O       3.84308854       5.70050759      13.93817478      -0.00569203       0.01023215       0.00070569 
V       4.79917770       5.68664863      16.38273286       0.00363966      -0.00506911       0.02603908 
O       5.42028334       5.67474004      17.84439307      -0.00173222       0.00236222       0.04070293 
O       3.05459508       5.68446724      16.55512280      -0.00321834      -0.00705385       0.01569364 
