117
Lattice="10.341746277552646 0.0 0.0 -2.619435405085487e-16 11.467 0.0 0.0 0.0 23.497200848665354" Properties=species:S:1:pos:R:3:forces:R:3 energy=-843.7305365426407 pbc="T T F"
O       8.47657182       1.91117250       6.00000000       0.00000000       0.00000000       0.00000000 
O       3.30569868       0.00000000       6.00000000       0.00000000       0.00000000       0.00000000 
Ti       1.41275186       0.00000000       6.75295684       0.00000000       0.00000000       0.00000000 
Ti       6.58362500       1.91117250       6.75295684       0.00000000       0.00000000       0.00000000 
Ti       9.52224953       1.91117250       7.64087763       0.00000000       0.00000000       0.00000000 
Ti       4.35137640       0.00000000       7.64087763       0.00000000       0.00000000       0.00000000 
O       9.86155132       0.00000000       7.50591367       0.00000000       0.00000000       0.00000000 
O       4.69067818       1.91117250       7.50591367       0.00000000       0.00000000       0.00000000 
O       7.62930272       1.91117250       8.39383447       0.00000000       0.00000000       0.00000000 
O       2.45842958       0.00000000       8.39383447       0.00000000       0.00000000       0.00000000 
O       6.24432321       0.00000000       6.88792080       0.00000000       0.00000000       0.00000000 
O       1.07345007       1.91117250       6.88792080       0.00000000       0.00000000       0.00000000 
O       9.80806211       1.90113278       9.58292634      -0.00381468       0.00264539      -0.01809243 
O       4.63285127      11.46144803       9.58103037      -0.00481286      -0.00442402      -0.01566281 
Ti       2.74538371      -0.00719057      10.36146156      -0.00521990      -0.01007111       0.00691487 
Ti       7.91208622       1.89834545      10.36129990      -0.00978423       0.00247700       0.00671939 
Ti       0.46471917       1.89720763      11.12857627       0.00846318       0.00568834       0.01462465 
Ti       5.64499818      11.44605296      11.12109470       0.00799620      -0.00490525       0.00723115 
O       0.90196016      -0.01515224      11.09437884      -0.00627264      -0.00313239      -0.00737576 
O       6.08024871       1.91097611      11.07214721       0.00676743       0.00150115      -0.00333172 
O       9.03913264       1.90599525      11.95627869       0.00241269      -0.00296497       0.01023355 
O       3.86891865       0.00448745      11.94499694       0.00023666       0.00296721       0.00056519 
O       7.56504046      11.45589852      10.45006542       0.00137528      -0.00069796       0.00264284 
O       2.37957892       1.90563997      10.44761627      -0.00218144       0.00133774      -0.00004547 
O       0.95474433       1.89935551      13.07990900      -0.00429112      -0.00159645      -0.00768829 
O       6.11249849       0.01500070      13.07198193       0.00174441      -0.00168100      -0.00406976 
Ti       4.21299846       0.02247992      13.98918242       0.01067389      -0.00233656      -0.00027329 
Ti       9.39256837       1.89302333      14.00647752       0.00969098       0.00448642       0.00129625 
Ti       1.84681434       1.90648595      14.60617366      -0.00003548       0.00057218      -0.00043471 
Ti       7.00236811       0.00984067      14.60054447      -0.00255815      -0.00515146      -0.00275249 
O       2.38284074       0.01994012      14.83279782       0.00197916      -0.00042877      -0.00572583 
O       7.56897184       1.91515083      14.81294878       0.00037876       0.00427952      -0.00208995 
O       0.22205019       1.92297078      15.45345677      -0.00587420       0.00432778       0.00471548 
O       5.39014729       0.03283507      15.44750465      -0.00930321       0.00666358       0.00335156 
O       9.03770875      -0.00401808      13.98039529      -0.01363161      -0.01489569      -0.00733848 
O       3.84555682       1.91303197      13.95341881       0.00517472      -0.00749414       0.00101316 
O       8.47657182       5.73351750       6.00000000       0.00000000       0.00000000       0.00000000 
O       3.30569868       3.82234500       6.00000000       0.00000000       0.00000000       0.00000000 
Ti       1.41275186       3.82234500       6.75295684       0.00000000       0.00000000       0.00000000 
Ti       6.58362500       5.73351750       6.75295684       0.00000000       0.00000000       0.00000000 
Ti       9.52224953       5.73351750       7.64087763       0.00000000       0.00000000       0.00000000 
Ti       4.35137640       3.82234500       7.64087763       0.00000000       0.00000000       0.00000000 
O       9.86155132       3.82234500       7.50591367       0.00000000       0.00000000       0.00000000 
O       4.69067818       5.73351750       7.50591367       0.00000000       0.00000000       0.00000000 
O       7.62930272       5.73351750       8.39383447       0.00000000       0.00000000       0.00000000 
O       2.45842958       3.82234500       8.39383447       0.00000000       0.00000000       0.00000000 
O       6.24432321       3.82234500       6.88792080       0.00000000       0.00000000       0.00000000 
O       1.07345007       5.73351750       6.88792080       0.00000000       0.00000000       0.00000000 
O       9.81048547       5.72641882       9.62173613      -0.00612750       0.00204828      -0.00017957 
O       4.63474997       3.82762923       9.58271634      -0.00810103      -0.00018888      -0.02093640 
Ti       2.74750678       3.79339944      10.35593678      -0.00830410       0.01033303       0.01144506 
Ti       7.92433795       5.71136567      10.31753413      -0.01067850       0.00181546       0.00819178 
Ti       0.54127900       5.72293694      11.16704520       0.01146568       0.00330435       0.01771796 
Ti       5.64996948       3.82540736      11.12142318       0.00825496       0.01193639       0.00883463 
O       0.89951029       3.81360368      11.08743189      -0.00324409      -0.00223899       0.00038350 
O       6.08241060       5.73689866      11.08994466       0.00238390      -0.01943455       0.00321436 
O       9.01497931       5.78697847      12.00179902      -0.00011549       0.01341236      -0.00005411 
O       3.87246648       3.81446787      11.94717017      -0.00057110       0.00033213      -0.01122533 
O       7.56757116       3.83103002      10.45084548       0.00419328       0.00349071       0.00322704 
O       2.36108665       5.73197229      10.45754679       0.00685942      -0.00630604      -0.00527872 
O       0.89614588       5.64215100      13.19611486      -0.01252387      -0.00346121      -0.00824363 
O       6.11655352       3.81090531      13.07832169      -0.00067445       0.00220890      -0.00936392 
Ti       4.22141072       3.79781157      13.97845995       0.00353940       0.00050801      -0.00603443 
Ti       9.29449387       5.67602404      13.86859509       0.00665303       0.01485540       0.00364645 
Ti       2.00465737       5.71185982      14.65524910       0.00766312       0.01712587       0.00569929 
Ti       7.00244059       3.81394918      14.61277686      -0.00006956      -0.01234553       0.00223527 
O       2.39345589       3.79278654      14.83222278       0.00053382      -0.01147711       0.00297333 
O       7.53744396       5.70009279      14.80249217       0.00758838      -0.00061729       0.00335962 
O       0.19688802       5.78403253      15.52692823      -0.01394630      -0.04380947       0.01902866 
O       5.38709414       3.82324556      15.45290654       0.00919745       0.00111339       0.00970062 
O       9.02888183       3.82625155      13.96152680      -0.00974003       0.01116155      -0.00021100 
O       3.79399342       5.70479726      13.95080943       0.02220892      -0.00615879      -0.00657894 
O       8.47657182       9.55586250       6.00000000       0.00000000       0.00000000       0.00000000 
O       3.30569868       7.64469000       6.00000000       0.00000000       0.00000000       0.00000000 
Ti       1.41275186       7.64469000       6.75295684       0.00000000       0.00000000       0.00000000 
Ti       6.58362500       9.55586250       6.75295684       0.00000000       0.00000000       0.00000000 
Ti       9.52224953       9.55586250       7.64087763       0.00000000       0.00000000       0.00000000 
Ti       4.35137640       7.64469000       7.64087763       0.00000000       0.00000000       0.00000000 
O       9.86155132       7.64469000       7.50591367       0.00000000       0.00000000       0.00000000 
O       4.69067818       9.55586250       7.50591367       0.00000000       0.00000000       0.00000000 
O       7.62930272       9.55586250       8.39383447       0.00000000       0.00000000       0.00000000 
O       2.45842958       7.64469000       8.39383447       0.00000000       0.00000000       0.00000000 
O       6.24432321       7.64469000       6.88792080       0.00000000       0.00000000       0.00000000 
O       1.07345007       9.55586250       6.88792080       0.00000000       0.00000000       0.00000000 
O       9.81076522       9.54811920       9.61957185       0.00242326       0.00206153       0.01106249 
O       4.65294054       7.64315413       9.59736548      -0.00805373      -0.00028127      -0.02637084 
Ti       2.72671762       7.67537727      10.29872372      -0.00436913       0.00391184       0.01331231 
Ti       7.98273545       9.57237491      10.33208049      -0.01411550      -0.00319546      -0.00211688 
Ti       0.48225462       9.55158529      11.26804472       0.01794040      -0.00864792       0.00623637 
Ti       5.72257236       7.66037097      11.12264849       0.01688145      -0.00952161       0.00670265 
O       0.91047962       7.64488499      11.11015687      -0.01212481       0.00968021      -0.00045636 
O       6.06989148       9.55152414      11.09338584      -0.00774266       0.01682856      -0.00090648 
O       9.03535317       9.53321338      11.99067474       0.00435267      -0.00463005      -0.00865778 
O       3.85446111       7.64161520      11.92331478       0.00719921      -0.00266898       0.00548876 
O       7.55283070       7.64881219      10.45255213       0.00969220      -0.00182470      -0.01080613 
O       2.38418711       9.54703893      10.45517858      -0.00784176       0.00648131      -0.00057096 
O       0.89577196       9.57447899      13.23464067      -0.00875252      -0.00416019       0.01464471 
O       6.07030159       7.66049675      13.22384291       0.00324388       0.00146489      -0.01483444 
Ti       4.09208470       7.76488507      13.75691422       0.00344443       0.00373331       0.01073954 
Ti       9.48022346       9.60708696      14.00764718       0.01442280      -0.01075219       0.01693824 
Ti       1.87994354       9.59309519      15.00749107       0.00711109      -0.00372738      -0.00497904 
Ti       7.11114650       7.70696845      14.71447432       0.01099301       0.01035462       0.00767644 
O       2.34373238       7.64530830      14.58180196       0.01863533       0.01374058       0.01567875 
O       7.50256783       9.60148969      14.84211750       0.01208628      -0.00188259      -0.00837340 
O       0.18572682       9.58213245      15.61194849      -0.00123097       0.01529305      -0.00082882 
O       5.09615360       7.67171102      15.58895186      -0.00951909       0.00332425      -0.00115946 
O       8.91207846       7.67260505      14.13382565       0.02149340      -0.00248202      -0.04060396 
O       3.86117796       9.58986129      13.94331238       0.01005469      -0.00568178       0.00474586 
V       3.85304718       7.76291719      16.86742229       0.00599576       0.00329547       0.00010168 
O       2.82795440       9.15811743      16.70785556       0.01898679      -0.01172315       0.00390761 
O       7.51938195       7.67457363      16.94240680       0.00028231       0.01747506       0.01343412 
O       2.80800021       6.17398035      16.74448660       0.01142579      -0.00686278       0.01051068 
O       4.71085390       7.81605791      18.23751403       0.00756085       0.01540031       0.01118206 
H       6.65702815       7.66152388      17.45027482      -0.01457051      -0.00711569       0.01597416 
H       7.91419385       8.55442854      17.15724834       0.00860693      -0.01528218       0.02139153 
H      10.26872845       6.10269669      16.41431313       0.01642894       0.01824383       0.00107844 
H       3.04690313       5.43050884      17.34495929       0.01423613      -0.00574965      -0.02814813 
