78
Lattice="10.341746277552646 0.0 0.0 -2.619435405085487e-16 7.64469 0.0 0.0 0.0 23.497200848665354" Properties=species:S:1:pos:R:3:forces:R:3 energy=-565.8052889939893 pbc="T T F"
O       8.47657182       1.91117250       6.00000000       0.00000000       0.00000000       0.00000000 
O       3.30569868       0.00000000       6.00000000       0.00000000       0.00000000       0.00000000 
Ti       1.41275186       0.00000000       6.75295684       0.00000000       0.00000000       0.00000000 
Ti       6.58362500       1.91117250       6.75295684       0.00000000       0.00000000       0.00000000 
Ti       9.52224953       1.91117250       7.64087763       0.00000000       0.00000000       0.00000000 
Ti       4.35137640       0.00000000       7.64087763       0.00000000       0.00000000       0.00000000 
O       9.86155132       0.00000000       7.50591367       0.00000000       0.00000000       0.00000000 
O       4.69067818       1.91117250       7.50591367       0.00000000       0.00000000       0.00000000 
O       7.62930272       1.91117250       8.39383447       0.00000000       0.00000000       0.00000000 
O       2.45842958       0.00000000       8.39383447       0.00000000       0.00000000       0.00000000 
O       6.24432321       0.00000000       6.88792080       0.00000000       0.00000000       0.00000000 
O       1.07345007       1.91117250       6.88792080       0.00000000       0.00000000       0.00000000 
O       9.81524759       1.93177447       9.60607483       0.00444475      -0.01363534       0.00175936 
O       4.63715930       7.64183999       9.60852289      -0.00727634      -0.00395712      -0.00868449 
Ti       2.70361675      -0.00530748      10.31805209       0.01023469      -0.00277182      -0.00889113 
Ti       7.93252203       1.91657738      10.38180443      -0.01310378      -0.00689194      -0.00218587 
Ti       0.45086943       1.91627362      11.17705715       0.01430535      -0.00395031      -0.01685750 
Ti       5.70639634       7.61006334      11.11541041      -0.00098420      -0.00227315      -0.01061575 
O       0.89750682       7.63618326      11.10681219      -0.00043571       0.00053721       0.00660000 
O       6.09369039       1.90649853      11.09199421       0.00836942      -0.00627645       0.00950184 
O       9.02838932       1.91316720      11.99200918      -0.01283406      -0.00344610       0.01578405 
O       3.83790568       7.64986053      11.97972663      -0.01366169       0.00289794       0.01202193 
O       7.55534556       7.62456236      10.46073440      -0.00125660       0.00152284      -0.00054551 
O       2.36800355       1.90799502      10.45263656       0.00159678       0.00601633       0.00921049 
O       0.88635114       1.91808183      13.19034796      -0.00001640      -0.02120866       0.00934824 
O       6.06580816       0.01555058      13.15659867       0.01385265       0.00847284       0.01485198 
Ti       4.08998532      -0.09718383      13.82856437      -0.00058897       0.00637636       0.00110334 
Ti       9.41607290       1.87016123      14.12988482      -0.02423187      -0.00555655       0.02122691 
Ti       1.85016129       1.90276698      14.69761490      -0.01765032      -0.00781339      -0.00679076 
Ti       7.04419881       7.59930499      14.64075344      -0.01070060       0.00873496      -0.00220085 
O       2.37111665       0.00476688      14.79116805       0.01302828      -0.01265965       0.00605376 
O       7.51269387       1.83583982      14.97124462       0.00313335      -0.00288609       0.00393587 
O       0.23189731       1.90018495      15.58135570       0.01565312      -0.00763500       0.01216148 
O       5.38064060       7.23670572      15.61186612      -0.01006087       0.03495759      -0.01192937 
O       9.00594309      -0.02381725      14.12997395      -0.00305419       0.00772658      -0.00094963 
O       3.90173023       1.89338707      14.14423209      -0.02256464      -0.01583169      -0.01638624 
O       8.47657182       5.73351750       6.00000000       0.00000000       0.00000000       0.00000000 
O       3.30569868       3.82234500       6.00000000       0.00000000       0.00000000       0.00000000 
Ti       1.41275186       3.82234500       6.75295684       0.00000000       0.00000000       0.00000000 
Ti       6.58362500       5.73351750       6.75295684       0.00000000       0.00000000       0.00000000 
Ti       9.52224953       5.73351750       7.64087763       0.00000000       0.00000000       0.00000000 
Ti       4.35137640       3.82234500       7.64087763       0.00000000       0.00000000       0.00000000 
O       9.86155132       3.82234500       7.50591367       0.00000000       0.00000000       0.00000000 
O       4.69067818       5.73351750       7.50591367       0.00000000       0.00000000       0.00000000 
O       7.62930272       5.73351750       8.39383447       0.00000000       0.00000000       0.00000000 
O       2.45842958       3.82234500       8.39383447       0.00000000       0.00000000       0.00000000 
O       6.24432321       3.82234500       6.88792080       0.00000000       0.00000000       0.00000000 
O       1.07345007       5.73351750       6.88792080       0.00000000       0.00000000       0.00000000 
O       9.80372021       5.71117983       9.63289721      -0.00673531      -0.01035729      -0.00315637 
O       4.64303743       3.81989133       9.62149299      -0.01273820      -0.00446465      -0.02501367 
Ti       2.73355266       3.81843708      10.31221402       0.00256281      -0.01405486       0.00487383 
Ti       8.02025154       5.71536605      10.33474223      -0.02032608      -0.00972008      -0.00983536 
Ti       0.50443352       5.71599580      11.32630724       0.02689349      -0.01498728      -0.00919079 
Ti       5.68956377       3.82823724      11.16823931       0.00650976      -0.00803035       0.00670812 
O       0.90402112       3.81718128      11.10996482      -0.00032157      -0.01499377       0.00373082 
O       6.05761816       5.71519191      11.11718373       0.01283601       0.00662608       0.00877114 
O       9.04426933       5.69952406      12.01941767      -0.02056257      -0.00446192      -0.01400899 
O       3.86568760       3.75638438      11.99347709      -0.02923998       0.01312952       0.02143980 
O       7.55599021       3.82613030      10.46355085       0.01645669      -0.01318508      -0.00613142 
O       2.38491646       5.71991522      10.46790416       0.00455626      -0.01266178      -0.01189700 
O       0.91515460       5.70234069      13.24803819       0.00057478       0.00255017      -0.00453426 
O       6.09541503       3.72272198      13.25394635       0.01187544      -0.00771427      -0.00173357 
Ti       4.15944124       3.73336861      13.86373737       0.00370520       0.00162188      -0.00119825 
Ti       9.48050736       5.71693516      14.06009244       0.01899965      -0.00083388      -0.01581903 
Ti       1.91218507       5.69346601      15.04087161      -0.02242693      -0.01097386       0.02138938 
Ti       7.11861108       3.79441419      14.77913392      -0.01971765      -0.00996729       0.02212406 
O       2.37303380       3.76559732      14.79812702      -0.00342112       0.00309429       0.02689935 
O       7.54822341       5.72174746      14.79613434       0.02129648       0.00375903      -0.01189826 
O       0.19705403       5.68159043      15.62850562       0.00043997       0.00319716       0.02325025 
O       5.27744258       4.15615637      15.61017111      -0.01102829      -0.03637844      -0.00817934 
O       8.97051984       3.77711771      14.15029955      -0.00296080      -0.00839953      -0.02100047 
O       3.81395094       5.71245234      13.95156551       0.01496008       0.00046805       0.01766444 
V       4.77805206       5.69576158      16.44758024       0.00275354       0.01035627       0.01381296 
O       3.05335977       5.69313803      16.66489729      -0.01757336       0.00256563      -0.01887987 
O       5.58823208       5.65933960      17.84977826      -0.00263271      -0.00607241       0.00446174 
O       7.59787767       3.91670795      16.96227737       0.01203983      -0.01846569       0.01241095 
H       8.51715281       4.19226999      17.18870002       0.00632453       0.04130665      -0.01733567 
H       6.98415285       4.55765891      17.44168527       0.00642954      -0.01785222       0.00499448 
