
  ___ ___ ___ _ _ _  
 |   |   |_  | | | | 
 | | | | | . | | | | 
 |__ |  _|___|_____|  1.5.1
 |___|_|             

User:   siva@s81n32.grendel.cscaa.dk
Date:   Sat May 25 00:53:26 2019
Arch:   x86_64
Pid:    12364
Python: 3.6.3
gpaw:   /home/siva/gpaw-1.5.1/gpaw
_gpaw:  /home/siva/gpaw-1.5.1/build/bin.linux-x86_64-3.6/gpaw-python
ase:    /home/siva/env1.5/lib/python3.6/site-packages/ase (version 3.17.0)
numpy:  /home/siva/env1.5/lib/python3.6/site-packages/numpy (version 1.16.0)
scipy:  /home/siva/env1.5/lib/python3.6/site-packages/scipy (version 1.2.0)
units:  Angstrom and eV
cores:  24
Extra parameters: {'blacs': True}

Input parameters:
  basis: dzp
  kpts: [3 3 1]
  mode: {ecut: 500.0,
         gammacentered: False,
         name: pw}
  xc: PBE

System changes: positions, numbers, cell, pbc, initial_charges, initial_magmoms 

Initialize ...

O-setup:
  name: Oxygen
  id: 32ecd46bf208036f09c70b0ec9a88b78
  Z: 8
  valence: 6
  core: 2
  charge: 0.0
  file: /home/wido/sw/gpaw/basis/gpaw-setups-0.9.20000/O.PBE.gz
  cutoffs: 0.67(comp), 1.17(filt), 0.83(core), lmax=2
  valence states:
                energy  radius
    2s(2.00)   -23.961   0.688
    2p(4.00)    -9.029   0.598
    *s           3.251   0.688
    *p          18.182   0.598
    *d           0.000   0.619

  LCAO basis set for O:
    Name: dzp
    File: /home/wido/sw/gpaw/basis/gpaw-setups-0.9.20000/O.dzp.basis.gz
    Number of radial functions: 5
    Number of spherical harmonics: 13
      l=0, rc=4.3438 Bohr: 2s-sz confined orbital
      l=1, rc=5.3906 Bohr: 2p-sz confined orbital
      l=0, rc=2.2969 Bohr: 2s-dz split-valence wave
      l=1, rc=2.8906 Bohr: 2p-dz split-valence wave
      l=2, rc=5.3906 Bohr: d-type Gaussian polarization

H-setup:
  name: Hydrogen
  id: d65de229564ff8ea4db303e23b6d1ecf
  Z: 1
  valence: 1
  core: 0
  charge: 0.0
  file: /home/wido/sw/gpaw/basis/gpaw-setups-0.9.20000/H.PBE.gz
  cutoffs: 0.48(comp), 0.85(filt), 0.53(core), lmax=2
  valence states:
                energy  radius
    1s(1.00)    -6.494   0.476
    *s          20.717   0.476
    *p           0.000   0.476

  LCAO basis set for H:
    Name: dzp
    File: /home/wido/sw/gpaw/basis/gpaw-setups-0.9.20000/H.dzp.basis.gz
    Number of radial functions: 3
    Number of spherical harmonics: 5
      l=0, rc=6.4219 Bohr: 1s-sz confined orbital
      l=0, rc=3.6094 Bohr: 1s-dz split-valence wave
      l=1, rc=6.4219 Bohr: p-type Gaussian polarization

Reference energy: -2065.832626

Spin-paired calculation

Occupation numbers:
  Fermi-Dirac: width=0.1000 eV

Convergence criteria:
  Maximum total energy change: 0.0005 eV / electron
  Maximum integral of absolute density change: 0.0001 electrons
  Maximum integral of absolute eigenstate change: 4e-08 eV^2
  Maximum number of iterations: 333

Symmetries present (total): 1

  ( 1  0  0)
  ( 0  1  0)
  ( 0  0  1)

9 k-points: 3 x 3 x 1 Monkhorst-Pack grid
5 k-points in the irreducible part of the Brillouin zone
       k-points in crystal coordinates                weights
   0:     0.00000000    0.00000000    0.00000000          1/9
   1:     0.00000000    0.33333333    0.00000000          2/9
   2:     0.33333333   -0.33333333    0.00000000          2/9
   3:     0.33333333    0.00000000    0.00000000          2/9
   4:     0.33333333    0.33333333    0.00000000          2/9

Wave functions: Plane wave expansion
  Cutoff energy: 500.000 eV
  Number of coefficients (min, max): 70673, 70768
  Pulay-stress correction: 0.000000 eV/Ang^3 (de/decut=0.000000)
  Using FFTW library
  ScaLapack parameters: grid=1x1, blocksize=None
  Wavefunction extrapolation:
    Improved wavefunction reuse through dual PAW basis 

Eigensolver
   Davidson(niter=2, smin=None, normalize=True) 

Densities:
  Coarse grid: 54*60*125 grid
  Fine grid: 108*120*250 grid
  Total Charge: 0.000000 

Density mixing:
  Method: separate
  Backend: pulay
  Linear mixing parameter: 0.05
  Mixing with 5 old densities
  Damping of long wave oscillations: 50 

Hamiltonian:
  XC and Coulomb potentials evaluated on a 108*120*250 grid
  Using the PBE Exchange-Correlation functional
 

XC parameters: PBE with 2 nearest neighbor stencil

Memory estimate:
  Process memory now: 271.64 MiB
  Calculator: 74.20 MiB
    Density: 8.73 MiB
      Arrays: 3.37 MiB
      Localized functions: 4.06 MiB
      Mixer: 1.30 MiB
    Hamiltonian: 2.31 MiB
      Arrays: 2.21 MiB
      XC: 0.00 MiB
      Poisson: 0.00 MiB
      vbar: 0.10 MiB
    Wavefunctions: 63.16 MiB
      Arrays psit_nG: 32.40 MiB
      Eigensolver: 11.88 MiB
      Projections: 0.00 MiB
      Projectors: 1.91 MiB
      PW-descriptor: 16.97 MiB

Total number of cores used: 24
Domain decomposition: 2 x 2 x 6

Number of atoms: 3
Number of atomic orbitals: 23
Number of bands in calculation: 6
Bands to converge: occupied states only
Number of valence electrons: 8

... initialized

Initializing position-dependent things.

Density initialized from atomic densities
Creating initial wave functions:
  6 bands from LCAO basis set

                    
                    
                    
                    
       H O H        
                    
                    
                    
                    

Positions:
   0 O      5.039079    5.743245   11.383943    ( 0.0000,  0.0000,  0.0000)
   1 H      4.381879    5.723755   12.113257    ( 0.0000,  0.0000,  0.0000)
   2 H      5.959868    5.742277   11.780512    ( 0.0000,  0.0000,  0.0000)

Unit cell:
           periodic     x           y           z      points  spacing
  1. axis:    yes   10.341746    0.000000    0.000000    54     0.1915
  2. axis:    yes   -0.000000   11.467000    0.000000    60     0.1911
  3. axis:    no     0.000000    0.000000   23.497201   125     0.1880

  Lengths:  10.341746  11.467000  23.497201
  Angles:   90.000000  90.000000  90.000000

Effective grid spacing dv^(1/3) = 0.1902

                     log10-error:    total        iterations:
           time      wfs    density  energy       fermi  poisson
iter:   1  00:53:30  +0.54   +inf   -14.875978    0             
iter:   2  00:53:31  -1.12  -0.79   -14.658659    0             
iter:   3  00:53:32  -0.80  -0.83   -14.050262    10            
iter:   4  00:53:33  -0.89  -1.04   -14.050284    7             
iter:   5  00:53:34  -1.50  -1.22   -13.994317    0             
iter:   6  00:53:35  -2.38  -1.89   -13.996174    0             
iter:   7  00:53:35  -2.21  -2.11   -14.009553    1             
iter:   8  00:53:36  -2.51  -1.77   -13.995026    0             
iter:   9  00:53:37  -3.56  -2.30   -13.995047    0             
iter:  10  00:53:38  -3.71  -2.38   -13.994616    0             
iter:  11  00:53:39  -3.76  -2.66   -13.994493    0             
iter:  12  00:53:40  -5.02  -3.19   -13.994475    0             
iter:  13  00:53:41  -5.54  -3.49   -13.994471    0             
iter:  14  00:53:42  -6.41  -3.78   -13.994471    0             
iter:  15  00:53:43  -6.81  -3.80   -13.994472    0             
iter:  16  00:53:44  -5.88  -3.76   -13.994477    0             
iter:  17  00:53:45  -7.39  -3.45   -13.994476    0             
iter:  18  00:53:46  -5.63  -3.47   -13.994492    0             
iter:  19  00:53:47  -5.73  -3.20   -13.994475    0             
iter:  20  00:53:48  -5.94  -3.53   -13.994472    0             
iter:  21  00:53:49  -6.01  -3.79   -13.994471    0             
iter:  22  00:53:50  -6.13  -4.00   -13.994472    0             
iter:  23  00:53:51  -6.42  -3.85   -13.994471    0             
iter:  24  00:53:52  -6.85  -4.26   -13.994471    0             
iter:  25  00:53:53  -6.10  -4.22   -13.994473    0             
iter:  26  00:53:54  -6.03  -3.76   -13.994471    0             
iter:  27  00:53:55  -7.55  -4.34   -13.994471    0             

Converged after 27 iterations.

Dipole moment: (0.081152, -0.006351, 0.350406) |e|*Ang

Energy contributions relative to reference atoms: (reference = -2065.832626)

Kinetic:        +10.382220
Potential:      -12.573864
External:        +0.000000
XC:             -11.856082
Entropy (-ST):   -0.000000
Local:           +0.053255
--------------------------
Free energy:    -13.994471
Extrapolated:   -13.994471

Fermi level: -4.34081

Showing only first 2 kpts
 Kpt  Band  Eigenvalues  Occupancy
  0     2     -9.05429    0.22222
  0     3     -7.12660    0.22222
  0     4     -1.06256    0.00000
  0     5      0.02753    0.00000

  1     2     -9.05444    0.44444
  1     3     -7.12768    0.44444
  1     4     -1.04538    0.00000
  1     5      0.11318    0.00000



Forces in eV/Ang:
  0 O     0.80460   -0.01488    0.37933
  1 H     0.62926    0.00639   -0.09709
  2 H    -1.45291   -0.00717   -0.19890

System changes: positions 

Initializing position-dependent things.

Density initialized from wave functions
                    
                    
                    
                    
       H O H        
                    
                    
                    
                    

Positions:
   0 O      5.050574    5.743032   11.389362    ( 0.0000,  0.0000,  0.0000)
   1 H      4.390868    5.723847   12.111870    ( 0.0000,  0.0000,  0.0000)
   2 H      5.939112    5.742174   11.777671    ( 0.0000,  0.0000,  0.0000)

Unit cell:
           periodic     x           y           z      points  spacing
  1. axis:    yes   10.341746    0.000000    0.000000    54     0.1915
  2. axis:    yes   -0.000000   11.467000    0.000000    60     0.1911
  3. axis:    no     0.000000    0.000000   23.497201   125     0.1880

  Lengths:  10.341746  11.467000  23.497201
  Angles:   90.000000  90.000000  90.000000

Effective grid spacing dv^(1/3) = 0.1902

                     log10-error:    total        iterations:
           time      wfs    density  energy       fermi  poisson
iter:   1  00:53:56  -2.05   +inf   -14.024414    0             
iter:   2  00:53:57  -3.68  -2.03   -14.023442    0             
iter:   3  00:53:58  -2.26  -2.05   -14.021630    0             
iter:   4  00:53:59  -3.90  -2.20   -14.019909    0             
iter:   5  00:54:00  -3.54  -2.29   -14.022204    0             
iter:   6  00:54:01  -2.74  -2.11   -14.018446    0             
iter:   7  00:54:02  -4.36  -3.03   -14.018434    0             
iter:   8  00:54:03  -5.11  -3.24   -14.018437    0             
iter:   9  00:54:04  -5.68  -3.42   -14.018446    0             
iter:  10  00:54:05  -5.67  -3.78   -14.018447    0             
iter:  11  00:54:06  -6.86  -3.69   -14.018447    0             
iter:  12  00:54:07  -6.59  -3.69   -14.018449    0             
iter:  13  00:54:08  -6.71  -3.60   -14.018447    0             
iter:  14  00:54:09  -7.54  -3.79   -14.018447    0             
iter:  15  00:54:10  -8.32  -3.82   -14.018447    0             
iter:  16  00:54:11  -6.31  -3.81   -14.018446    0             
iter:  17  00:54:12  -7.71  -4.46   -14.018446    0             

Converged after 17 iterations.

Dipole moment: (0.073877, -0.006298, 0.350734) |e|*Ang

Energy contributions relative to reference atoms: (reference = -2065.832626)

Kinetic:        +12.015888
Potential:      -13.784722
External:        +0.000000
XC:             -12.301913
Entropy (-ST):   -0.000000
Local:           +0.052301
--------------------------
Free energy:    -14.018446
Extrapolated:   -14.018446

Fermi level: -4.34081

Showing only first 2 kpts
 Kpt  Band  Eigenvalues  Occupancy
  0     2     -9.07992    0.22222
  0     3     -7.16550    0.22222
  0     4     -1.00757    0.00000
  0     5      0.03170    0.00000

  1     2     -9.08008    0.44444
  1     3     -7.16658    0.44444
  1     4     -0.98813    0.00000
  1     5      0.11684    0.00000



Forces in eV/Ang:
  0 O    -0.45431   -0.01156   -0.24153
  1 H     0.50804    0.00412   -0.02783
  2 H    -0.06426   -0.00778    0.36231

System changes: positions 

Initializing position-dependent things.

Density initialized from wave functions
                    
                    
                    
                    
       H O H        
                    
                    
                    
                    

Positions:
   0 O      5.046401    5.742833   11.387018    ( 0.0000,  0.0000,  0.0000)
   1 H      4.399535    5.723920   12.111232    ( 0.0000,  0.0000,  0.0000)
   2 H      5.934422    5.742048   11.782157    ( 0.0000,  0.0000,  0.0000)

Unit cell:
           periodic     x           y           z      points  spacing
  1. axis:    yes   10.341746    0.000000    0.000000    54     0.1915
  2. axis:    yes   -0.000000   11.467000    0.000000    60     0.1911
  3. axis:    no     0.000000    0.000000   23.497201   125     0.1880

  Lengths:  10.341746  11.467000  23.497201
  Angles:   90.000000  90.000000  90.000000

Effective grid spacing dv^(1/3) = 0.1902

                     log10-error:    total        iterations:
           time      wfs    density  energy       fermi  poisson
iter:   1  00:54:13  -2.92   +inf   -14.025525    0             
iter:   2  00:54:14  -4.41  -2.53   -14.025485    0             
iter:   3  00:54:15  -3.88  -2.53   -14.025093    0             
iter:   4  00:54:16  -4.67  -3.12   -14.025102    0             
iter:   5  00:54:17  -5.77  -3.26   -14.025103    0             
iter:   6  00:54:18  -5.42  -3.23   -14.025095    0             
iter:   7  00:54:19  -6.71  -3.83   -14.025095    0             
iter:   8  00:54:20  -6.68  -3.95   -14.025096    0             
iter:   9  00:54:21  -6.38  -3.80   -14.025095    0             
iter:  10  00:54:22  -6.69  -4.09   -14.025095    0             
iter:  11  00:54:23  -7.92  -4.33   -14.025095    0             

Converged after 11 iterations.

Dipole moment: (0.076888, -0.006190, 0.353200) |e|*Ang

Energy contributions relative to reference atoms: (reference = -2065.832626)

Kinetic:        +12.309570
Potential:      -14.014630
External:        +0.000000
XC:             -12.371427
Entropy (-ST):   -0.000000
Local:           +0.051391
--------------------------
Free energy:    -14.025095
Extrapolated:   -14.025095

Fermi level: -4.34081

Showing only first 2 kpts
 Kpt  Band  Eigenvalues  Occupancy
  0     2     -9.13246    0.22222
  0     3     -7.17488    0.22222
  0     4     -1.00087    0.00000
  0     5      0.03175    0.00000

  1     2     -9.13262    0.44444
  1     3     -7.17595    0.44444
  1     4     -0.98113    0.00000
  1     5      0.11689    0.00000



Forces in eV/Ang:
  0 O    -0.08824   -0.00638   -0.36997
  1 H     0.19249   -0.00279    0.20631
  2 H    -0.12257   -0.00598    0.25164

System changes: positions 

Initializing position-dependent things.

Density initialized from wave functions
                    
                    
                    
                    
       H O H        
                    
                    
                    
                    

Positions:
   0 O      5.041860    5.742410   11.374965    ( 0.0000,  0.0000,  0.0000)
   1 H      4.415438    5.723930   12.116327    ( 0.0000,  0.0000,  0.0000)
   2 H      5.922283    5.741730   11.793389    ( 0.0000,  0.0000,  0.0000)

Unit cell:
           periodic     x           y           z      points  spacing
  1. axis:    yes   10.341746    0.000000    0.000000    54     0.1915
  2. axis:    yes   -0.000000   11.467000    0.000000    60     0.1911
  3. axis:    no     0.000000    0.000000   23.497201   125     0.1880

  Lengths:  10.341746  11.467000  23.497201
  Angles:   90.000000  90.000000  90.000000

Effective grid spacing dv^(1/3) = 0.1902

                     log10-error:    total        iterations:
           time      wfs    density  energy       fermi  poisson
iter:   1  00:54:25  -2.21   +inf   -14.034008    0             
iter:   2  00:54:26  -3.67  -2.23   -14.033978    0             
iter:   3  00:54:27  -3.47  -2.25   -14.033189    0             
iter:   4  00:54:28  -4.15  -2.58   -14.033251    0             
iter:   5  00:54:28  -3.09  -2.62   -14.034041    0             
iter:   6  00:54:29  -3.63  -2.41   -14.033043    0             
iter:   7  00:54:30  -5.28  -3.21   -14.033064    0             
iter:   8  00:54:31  -4.97  -3.18   -14.033046    0             
iter:   9  00:54:32  -5.31  -3.71   -14.033048    0             
iter:  10  00:54:33  -6.10  -3.78   -14.033049    0             
iter:  11  00:54:34  -6.62  -3.67   -14.033050    0             
iter:  12  00:54:35  -6.29  -3.58   -14.033047    0             
iter:  13  00:54:36  -5.79  -3.83   -14.033048    0             
iter:  14  00:54:37  -6.57  -3.92   -14.033047    0             
iter:  15  00:54:38  -7.36  -4.42   -14.033047    0             
iter:  16  00:54:39  -7.70  -4.57   -14.033047    0             

Converged after 16 iterations.

Dipole moment: (0.079840, -0.005961, 0.361986) |e|*Ang

Energy contributions relative to reference atoms: (reference = -2065.832626)

Kinetic:        +12.346784
Potential:      -14.077620
External:        +0.000000
XC:             -12.354180
Entropy (-ST):   -0.000000
Local:           +0.051970
--------------------------
Free energy:    -14.033047
Extrapolated:   -14.033047

Fermi level: -4.34081

Showing only first 2 kpts
 Kpt  Band  Eigenvalues  Occupancy
  0     2     -9.27882    0.22222
  0     3     -7.18688    0.22222
  0     4     -1.00940    0.00000
  0     5      0.03096    0.00000

  1     2     -9.27897    0.44444
  1     3     -7.18796    0.44444
  1     4     -0.99001    0.00000
  1     5      0.11578    0.00000



Forces in eV/Ang:
  0 O     0.10698   -0.00987   -0.13023
  1 H    -0.03386   -0.00317    0.14460
  2 H    -0.09256   -0.00141    0.02783

System changes: positions 

Initializing position-dependent things.

Density initialized from wave functions
                    
                    
                    
                    
       H O H        
                    
                    
                    
                    

Positions:
   0 O      5.041733    5.742132   11.371083    ( 0.0000,  0.0000,  0.0000)
   1 H      4.419143    5.723904   12.118873    ( 0.0000,  0.0000,  0.0000)
   2 H      5.918240    5.741637   11.796295    ( 0.0000,  0.0000,  0.0000)

Unit cell:
           periodic     x           y           z      points  spacing
  1. axis:    yes   10.341746    0.000000    0.000000    54     0.1915
  2. axis:    yes   -0.000000   11.467000    0.000000    60     0.1911
  3. axis:    no     0.000000    0.000000   23.497201   125     0.1880

  Lengths:  10.341746  11.467000  23.497201
  Angles:   90.000000  90.000000  90.000000

Effective grid spacing dv^(1/3) = 0.1902

                     log10-error:    total        iterations:
           time      wfs    density  energy       fermi  poisson
iter:   1  00:54:41  -3.22   +inf   -14.033801    0             
iter:   2  00:54:42  -4.69  -2.73   -14.033793    0             
iter:   3  00:54:43  -4.19  -2.74   -14.033699    0             
iter:   4  00:54:44  -5.17  -3.08   -14.033706    0             
iter:   5  00:54:45  -4.86  -3.07   -14.033679    0             
iter:   6  00:54:46  -5.54  -3.33   -14.033678    0             
iter:   7  00:54:47  -6.59  -3.72   -14.033678    0             
iter:   8  00:54:48  -6.03  -3.73   -14.033676    0             
iter:   9  00:54:49  -7.33  -4.39   -14.033676    0             
iter:  10  00:54:50  -7.88  -4.49   -14.033676    0             

Converged after 10 iterations.

Dipole moment: (0.079800, -0.005800, 0.364725) |e|*Ang

Energy contributions relative to reference atoms: (reference = -2065.832626)

Kinetic:        +12.310274
Potential:      -14.060906
External:        +0.000000
XC:             -12.334973
Entropy (-ST):   -0.000000
Local:           +0.051929
--------------------------
Free energy:    -14.033676
Extrapolated:   -14.033676

Fermi level: -4.34081

Showing only first 2 kpts
 Kpt  Band  Eigenvalues  Occupancy
  0     2     -9.32040    0.22222
  0     3     -7.18851    0.22222
  0     4     -1.01410    0.00000
  0     5      0.03079    0.00000

  1     2     -9.32055    0.44444
  1     3     -7.18958    0.44444
  1     4     -0.99489    0.00000
  1     5      0.11540    0.00000



Forces in eV/Ang:
  0 O     0.01763   -0.01309   -0.00526
  1 H    -0.01609   -0.00088    0.02769
  2 H    -0.01717   -0.00022   -0.00577

System changes: positions 

Initializing position-dependent things.

Density initialized from wave functions
                    
                    
                    
                    
       H O H        
                    
                    
                    
                    

Positions:
   0 O      5.041797    5.741924   11.370969    ( 0.0000,  0.0000,  0.0000)
   1 H      4.419122    5.723893   12.119238    ( 0.0000,  0.0000,  0.0000)
   2 H      5.917952    5.741631   11.796333    ( 0.0000,  0.0000,  0.0000)

Unit cell:
           periodic     x           y           z      points  spacing
  1. axis:    yes   10.341746    0.000000    0.000000    54     0.1915
  2. axis:    yes   -0.000000   11.467000    0.000000    60     0.1911
  3. axis:    no     0.000000    0.000000   23.497201   125     0.1880

  Lengths:  10.341746  11.467000  23.497201
  Angles:   90.000000  90.000000  90.000000

Effective grid spacing dv^(1/3) = 0.1902

                     log10-error:    total        iterations:
           time      wfs    density  energy       fermi  poisson
iter:   1  00:54:51  -5.56   +inf   -14.033690    0             
iter:   2  00:54:52  -7.05  -3.80   -14.033689    0             
iter:   3  00:54:53  -6.17  -3.82   -14.033688    0             
iter:   4  00:54:54  -7.61  -4.56   -14.033688    0             

Converged after 4 iterations.

Dipole moment: (0.079803, -0.005668, 0.364808) |e|*Ang

Energy contributions relative to reference atoms: (reference = -2065.832626)

Kinetic:        +12.300686
Potential:      -14.053382
External:        +0.000000
XC:             -12.332345
Entropy (-ST):   -0.000000
Local:           +0.051352
--------------------------
Free energy:    -14.033688
Extrapolated:   -14.033688

Fermi level: -4.34081

Showing only first 2 kpts
 Kpt  Band  Eigenvalues  Occupancy
  0     2     -9.32219    0.22222
  0     3     -7.18892    0.22222
  0     4     -1.01447    0.00000
  0     5      0.03078    0.00000

  1     2     -9.32234    0.44444
  1     3     -7.19000    0.44444
  1     4     -0.99527    0.00000
  1     5      0.11539    0.00000



Forces in eV/Ang:
  0 O    -0.01293   -0.01280    0.00799
  1 H    -0.00566   -0.00050    0.01154
  2 H    -0.00386   -0.00019   -0.00128

System changes: positions 

Initializing position-dependent things.

Density initialized from wave functions
                    
                    
                    
                    
       H O H        
                    
                    
                    
                    

Positions:
   0 O      5.041597    5.741513   11.371063    ( 0.0000,  0.0000,  0.0000)
   1 H      4.418950    5.723875   12.119741    ( 0.0000,  0.0000,  0.0000)
   2 H      5.917686    5.741624   11.796313    ( 0.0000,  0.0000,  0.0000)

Unit cell:
           periodic     x           y           z      points  spacing
  1. axis:    yes   10.341746    0.000000    0.000000    54     0.1915
  2. axis:    yes   -0.000000   11.467000    0.000000    60     0.1911
  3. axis:    no     0.000000    0.000000   23.497201   125     0.1880

  Lengths:  10.341746  11.467000  23.497201
  Angles:   90.000000  90.000000  90.000000

Effective grid spacing dv^(1/3) = 0.1902

                     log10-error:    total        iterations:
           time      wfs    density  energy       fermi  poisson
iter:   1  00:54:55  -5.40   +inf   -14.033702    0             
iter:   2  00:54:56  -6.85  -3.86   -14.033702    0             
iter:   3  00:54:57  -6.48  -3.87   -14.033701    0             
iter:   4  00:54:58  -7.33  -4.41   -14.033701    0             
iter:   5  00:54:59  -8.16  -4.54   -14.033701    0             

Converged after 5 iterations.

Dipole moment: (0.079851, -0.005420, 0.364830) |e|*Ang

Energy contributions relative to reference atoms: (reference = -2065.832626)

Kinetic:        +12.292421
Potential:      -14.047064
External:        +0.000000
XC:             -12.329943
Entropy (-ST):   -0.000000
Local:           +0.050884
--------------------------
Free energy:    -14.033701
Extrapolated:   -14.033701

Fermi level: -4.34081

Showing only first 2 kpts
 Kpt  Band  Eigenvalues  Occupancy
  0     2     -9.32283    0.22222
  0     3     -7.18895    0.22222
  0     4     -1.01476    0.00000
  0     5      0.03076    0.00000

  1     2     -9.32298    0.44444
  1     3     -7.19003    0.44444
  1     4     -0.99558    0.00000
  1     5      0.11538    0.00000



Forces in eV/Ang:
  0 O    -0.02814   -0.01171    0.01885
  1 H     0.00221   -0.00023    0.00051
  2 H     0.00193   -0.00015    0.00058

System changes: positions 

Initializing position-dependent things.

Density initialized from wave functions
                    
                    
                    
                    
       H O H        
                    
                    
                    
                    

Positions:
   0 O      5.040354    5.739488   11.372023    ( 0.0000,  0.0000,  0.0000)
   1 H      4.418018    5.723788   12.121968    ( 0.0000,  0.0000,  0.0000)
   2 H      5.916590    5.741591   11.796077    ( 0.0000,  0.0000,  0.0000)

Unit cell:
           periodic     x           y           z      points  spacing
  1. axis:    yes   10.341746    0.000000    0.000000    54     0.1915
  2. axis:    yes   -0.000000   11.467000    0.000000    60     0.1911
  3. axis:    no     0.000000    0.000000   23.497201   125     0.1880

  Lengths:  10.341746  11.467000  23.497201
  Angles:   90.000000  90.000000  90.000000

Effective grid spacing dv^(1/3) = 0.1902

                     log10-error:    total        iterations:
           time      wfs    density  energy       fermi  poisson
iter:   1  00:55:00  -4.04   +inf   -14.033760    0             
iter:   2  00:55:01  -5.49  -3.27   -14.033760    0             
iter:   3  00:55:02  -5.54  -3.28   -14.033751    0             
iter:   4  00:55:03  -6.01  -3.65   -14.033751    0             
iter:   5  00:55:04  -7.19  -3.88   -14.033751    0             
iter:   6  00:55:05  -6.96  -3.93   -14.033751    0             
iter:   7  00:55:06  -7.73  -4.17   -14.033751    0             

Converged after 7 iterations.

Dipole moment: (0.080179, -0.004237, 0.364807) |e|*Ang

Energy contributions relative to reference atoms: (reference = -2065.832626)

Kinetic:        +12.285513
Potential:      -14.042911
External:        +0.000000
XC:             -12.326936
Entropy (-ST):   -0.000000
Local:           +0.050583
--------------------------
Free energy:    -14.033751
Extrapolated:   -14.033751

Fermi level: -4.34081

Showing only first 2 kpts
 Kpt  Band  Eigenvalues  Occupancy
  0     2     -9.32132    0.22222
  0     3     -7.18761    0.22222
  0     4     -1.01515    0.00000
  0     5      0.03069    0.00000

  1     2     -9.32147    0.44444
  1     3     -7.18869    0.44444
  1     4     -0.99598    0.00000
  1     5      0.11533    0.00000



Forces in eV/Ang:
  0 O    -0.07982   -0.00555    0.04403
  1 H     0.02679    0.00063   -0.02841
  2 H     0.01813    0.00015    0.00976

System changes: positions 

Initializing position-dependent things.

Density initialized from wave functions
                    
                    
                    
                    
       H O H        
                    
                    
                    
                    

Positions:
   0 O      5.035948    5.733489   11.375050    ( 0.0000,  0.0000,  0.0000)
   1 H      4.415687    5.723533   12.128568    ( 0.0000,  0.0000,  0.0000)
   2 H      5.913093    5.741495   11.795623    ( 0.0000,  0.0000,  0.0000)

Unit cell:
           periodic     x           y           z      points  spacing
  1. axis:    yes   10.341746    0.000000    0.000000    54     0.1915
  2. axis:    yes   -0.000000   11.467000    0.000000    60     0.1911
  3. axis:    no     0.000000    0.000000   23.497201   125     0.1880

  Lengths:  10.341746  11.467000  23.497201
  Angles:   90.000000  90.000000  90.000000

Effective grid spacing dv^(1/3) = 0.1902

                     log10-error:    total        iterations:
           time      wfs    density  energy       fermi  poisson
iter:   1  00:55:07  -3.07   +inf   -14.033907    0             
iter:   2  00:55:08  -4.52  -2.82   -14.033913    0             
iter:   3  00:55:09  -4.74  -2.83   -14.033860    0             
iter:   4  00:55:10  -5.03  -3.10   -14.033858    0             
iter:   5  00:55:11  -5.02  -3.33   -14.033862    0             
iter:   6  00:55:12  -5.34  -3.35   -14.033854    0             
iter:   7  00:55:13  -6.58  -3.76   -14.033854    0             
iter:   8  00:55:14  -6.79  -3.81   -14.033854    0             
iter:   9  00:55:15  -6.73  -4.27   -14.033854    0             
iter:  10  00:55:16  -7.67  -4.36   -14.033854    0             

Converged after 10 iterations.

Dipole moment: (0.081124, -0.000663, 0.364736) |e|*Ang

Energy contributions relative to reference atoms: (reference = -2065.832626)

Kinetic:        +12.254821
Potential:      -14.021030
External:        +0.000000
XC:             -12.318842
Entropy (-ST):   -0.000000
Local:           +0.051198
--------------------------
Free energy:    -14.033854
Extrapolated:   -14.033854

Fermi level: -4.34081

Showing only first 2 kpts
 Kpt  Band  Eigenvalues  Occupancy
  0     2     -9.32139    0.22222
  0     3     -7.18660    0.22222
  0     4     -1.01616    0.00000
  0     5      0.03045    0.00000

  1     2     -9.32154    0.44444
  1     3     -7.18767    0.44444
  1     4     -0.99704    0.00000
  1     5      0.11519    0.00000



Forces in eV/Ang:
  0 O    -0.14316   -0.00235    0.09627
  1 H     0.06969    0.00104   -0.08066
  2 H     0.04953    0.00048    0.02346

System changes: positions 

Initializing position-dependent things.

Density initialized from wave functions
                    
                    
                    
                    
       H O H        
                    
                    
                    
                    

Positions:
   0 O      5.031509    5.727688   11.378628    ( 0.0000,  0.0000,  0.0000)
   1 H      4.413514    5.723277   12.134547    ( 0.0000,  0.0000,  0.0000)
   2 H      5.910087    5.741412   11.795135    ( 0.0000,  0.0000,  0.0000)

Unit cell:
           periodic     x           y           z      points  spacing
  1. axis:    yes   10.341746    0.000000    0.000000    54     0.1915
  2. axis:    yes   -0.000000   11.467000    0.000000    60     0.1911
  3. axis:    no     0.000000    0.000000   23.497201   125     0.1880

  Lengths:  10.341746  11.467000  23.497201
  Angles:   90.000000  90.000000  90.000000

Effective grid spacing dv^(1/3) = 0.1902

                     log10-error:    total        iterations:
           time      wfs    density  energy       fermi  poisson
iter:   1  00:55:18  -3.08   +inf   -14.034077    0             
iter:   2  00:55:19  -4.53  -2.86   -14.034084    0             
iter:   3  00:55:20  -4.92  -2.87   -14.034047    0             
iter:   4  00:55:21  -4.96  -3.05   -14.034043    0             
iter:   5  00:55:22  -5.08  -3.27   -14.034043    0             
iter:   6  00:55:23  -5.69  -3.40   -14.034037    0             
iter:   7  00:55:24  -6.13  -3.83   -14.034037    0             
iter:   8  00:55:25  -6.61  -3.88   -14.034037    0             
iter:   9  00:55:26  -6.78  -4.40   -14.034037    0             
iter:  10  00:55:27  -8.22  -4.26   -14.034037    0             

Converged after 10 iterations.

Dipole moment: (0.082390, 0.002817, 0.364286) |e|*Ang

Energy contributions relative to reference atoms: (reference = -2065.832626)

Kinetic:        +12.255287
Potential:      -14.021382
External:        +0.000000
XC:             -12.319175
Entropy (-ST):   -0.000000
Local:           +0.051233
--------------------------
Free energy:    -14.034037
Extrapolated:   -14.034037

Fermi level: -4.34081

Showing only first 2 kpts
 Kpt  Band  Eigenvalues  Occupancy
  0     2     -9.31852    0.22222
  0     3     -7.18615    0.22222
  0     4     -1.01600    0.00000
  0     5      0.03034    0.00000

  1     2     -9.31867    0.44444
  1     3     -7.18723    0.44444
  1     4     -0.99688    0.00000
  1     5      0.11517    0.00000



Forces in eV/Ang:
  0 O    -0.17513    0.00855    0.11676
  1 H     0.08563    0.00080   -0.09410
  2 H     0.06406    0.00127    0.03515

System changes: positions 

Initializing position-dependent things.

Density initialized from wave functions
                   
                   
                   
                   
       HO H        
                   
                   
                   
                   

Positions:
   0 O      5.009427    5.699584   11.396586    ( 0.0000,  0.0000,  0.0000)
   1 H      4.403073    5.721995   12.163824    ( 0.0000,  0.0000,  0.0000)
   2 H      5.895559    5.741029   11.793016    ( 0.0000,  0.0000,  0.0000)

Unit cell:
           periodic     x           y           z      points  spacing
  1. axis:    yes   10.341746    0.000000    0.000000    54     0.1915
  2. axis:    yes   -0.000000   11.467000    0.000000    60     0.1911
  3. axis:    no     0.000000    0.000000   23.497201   125     0.1880

  Lengths:  10.341746  11.467000  23.497201
  Angles:   90.000000  90.000000  90.000000

Effective grid spacing dv^(1/3) = 0.1902

                     log10-error:    total        iterations:
           time      wfs    density  energy       fermi  poisson
iter:   1  00:55:28  -1.72   +inf   -14.035483    0             
iter:   2  00:55:29  -3.16  -2.19   -14.035714    0             
iter:   3  00:55:30  -3.67  -2.20   -14.035069    0             
iter:   4  00:55:31  -3.68  -2.37   -14.034937    0             
iter:   5  00:55:32  -3.92  -2.64   -14.034907    0             
iter:   6  00:55:33  -4.55  -2.80   -14.034846    0             
iter:   7  00:55:34  -5.01  -3.17   -14.034850    0             
iter:   8  00:55:35  -5.26  -3.20   -14.034848    0             
iter:   9  00:55:36  -5.61  -3.74   -14.034849    0             
iter:  10  00:55:37  -6.73  -3.69   -14.034849    0             
iter:  11  00:55:38  -5.91  -3.70   -14.034847    0             
iter:  12  00:55:39  -7.38  -4.65   -14.034847    0             
iter:  13  00:55:40  -7.48  -4.66   -14.034847    0             

Converged after 13 iterations.

Dipole moment: (0.088662, 0.019776, 0.361663) |e|*Ang

Energy contributions relative to reference atoms: (reference = -2065.832626)

Kinetic:        +12.196068
Potential:      -13.976272
External:        +0.000000
XC:             -12.305956
Entropy (-ST):   -0.000000
Local:           +0.051313
--------------------------
Free energy:    -14.034847
Extrapolated:   -14.034847

Fermi level: -4.34081

Showing only first 2 kpts
 Kpt  Band  Eigenvalues  Occupancy
  0     2     -9.30727    0.22222
  0     3     -7.18317    0.22222
  0     4     -1.01677    0.00000
  0     5      0.02980    0.00000

  1     2     -9.30742    0.44444
  1     3     -7.18423    0.44444
  1     4     -0.99771    0.00000
  1     5      0.11511    0.00000



Forces in eV/Ang:
  0 O    -0.26367    0.03951    0.18171
  1 H     0.15640   -0.00323   -0.15591
  2 H     0.08567    0.00595    0.06428

System changes: positions 

Initializing position-dependent things.

Density initialized from wave functions
                   
                   
                   
                   
       H  H        
        O          
                   
                   
                   

Positions:
   0 O      4.988341    5.673536   11.413657    ( 0.0000,  0.0000,  0.0000)
   1 H      4.394964    5.720706   12.190480    ( 0.0000,  0.0000,  0.0000)
   2 H      5.881242    5.740732   11.791616    ( 0.0000,  0.0000,  0.0000)

Unit cell:
           periodic     x           y           z      points  spacing
  1. axis:    yes   10.341746    0.000000    0.000000    54     0.1915
  2. axis:    yes   -0.000000   11.467000    0.000000    60     0.1911
  3. axis:    no     0.000000    0.000000   23.497201   125     0.1880

  Lengths:  10.341746  11.467000  23.497201
  Angles:   90.000000  90.000000  90.000000

Effective grid spacing dv^(1/3) = 0.1902

                     log10-error:    total        iterations:
           time      wfs    density  energy       fermi  poisson
iter:   1  00:55:41  -1.78   +inf   -14.035835    0             
iter:   2  00:55:42  -3.22  -2.23   -14.036063    0             
iter:   3  00:55:43  -3.86  -2.23   -14.035629    0             
iter:   4  00:55:44  -3.75  -2.38   -14.035473    0             
iter:   5  00:55:45  -4.20  -2.72   -14.035423    0             
iter:   6  00:55:46  -5.14  -2.93   -14.035411    0             
iter:   7  00:55:47  -4.99  -3.23   -14.035421    0             
iter:   8  00:55:48  -5.17  -3.20   -14.035411    0             
iter:   9  00:55:49  -6.12  -3.88   -14.035412    0             
iter:  10  00:55:50  -6.67  -3.82   -14.035412    0             
iter:  11  00:55:51  -6.15  -3.79   -14.035411    0             
iter:  12  00:55:52  -7.26  -4.83   -14.035411    0             
iter:  13  00:55:53  -8.27  -4.82   -14.035411    0             

Converged after 13 iterations.

Dipole moment: (0.094781, 0.035490, 0.358960) |e|*Ang

Energy contributions relative to reference atoms: (reference = -2065.832626)

Kinetic:        +12.158275
Potential:      -13.948650
External:        +0.000000
XC:             -12.296771
Entropy (-ST):   -0.000000
Local:           +0.051735
--------------------------
Free energy:    -14.035411
Extrapolated:   -14.035411

Fermi level: -4.34081

Showing only first 2 kpts
 Kpt  Band  Eigenvalues  Occupancy
  0     2     -9.30556    0.22222
  0     3     -7.18059    0.22222
  0     4     -1.01743    0.00000
  0     5      0.02939    0.00000

  1     2     -9.30573    0.44444
  1     3     -7.18163    0.44444
  1     4     -0.99846    0.00000
  1     5      0.11521    0.00000



Forces in eV/Ang:
  0 O    -0.25222    0.04982    0.20266
  1 H     0.17173   -0.00829   -0.17560
  2 H     0.07247    0.00921    0.05983

System changes: positions 

Initializing position-dependent things.

Density initialized from wave functions
                    
                    
                    
                    
       H            
         O H        
                    
                    
                    
                    

Positions:
   0 O      4.974784    5.657427   11.425438    ( 0.0000,  0.0000,  0.0000)
   1 H      4.391642    5.719713   12.205855    ( 0.0000,  0.0000,  0.0000)
   2 H      5.871561    5.740662   11.791019    ( 0.0000,  0.0000,  0.0000)

Unit cell:
           periodic     x           y           z      points  spacing
  1. axis:    yes   10.341746    0.000000    0.000000    54     0.1915
  2. axis:    yes   -0.000000   11.467000    0.000000    60     0.1911
  3. axis:    no     0.000000    0.000000   23.497201   125     0.1880

  Lengths:  10.341746  11.467000  23.497201
  Angles:   90.000000  90.000000  90.000000

Effective grid spacing dv^(1/3) = 0.1902

                     log10-error:    total        iterations:
           time      wfs    density  energy       fermi  poisson
iter:   1  00:55:54  -2.17   +inf   -14.036444    0             
iter:   2  00:55:55  -3.62  -2.42   -14.036522    0             
iter:   3  00:55:56  -4.21  -2.42   -14.036322    0             
iter:   4  00:55:57  -4.12  -2.56   -14.036245    0             
iter:   5  00:55:58  -4.25  -2.84   -14.036247    0             
iter:   6  00:55:59  -4.96  -3.06   -14.036213    0             
iter:   7  00:56:00  -5.31  -3.40   -14.036214    0             
iter:   8  00:56:01  -5.56  -3.46   -14.036214    0             
iter:   9  00:56:02  -5.68  -3.83   -14.036214    0             
iter:  10  00:56:03  -6.61  -3.83   -14.036214    0             
iter:  11  00:56:04  -6.02  -3.77   -14.036213    0             
iter:  12  00:56:05  -7.70  -4.62   -14.036213    0             

Converged after 12 iterations.

Dipole moment: (0.098987, 0.045340, 0.356811) |e|*Ang

Energy contributions relative to reference atoms: (reference = -2065.832626)

Kinetic:        +12.265165
Potential:      -14.026653
External:        +0.000000
XC:             -12.326563
Entropy (-ST):   -0.000000
Local:           +0.051838
--------------------------
Free energy:    -14.036213
Extrapolated:   -14.036213

Fermi level: -4.34081

Showing only first 2 kpts
 Kpt  Band  Eigenvalues  Occupancy
  0     2     -9.30807    0.22222
  0     3     -7.18251    0.22222
  0     4     -1.01381    0.00000
  0     5      0.02941    0.00000

  1     2     -9.30825    0.44444
  1     3     -7.18354    0.44444
  1     4     -0.99471    0.00000
  1     5      0.11547    0.00000



Forces in eV/Ang:
  0 O    -0.16512    0.03280    0.10437
  1 H     0.09547   -0.00388   -0.08500
  2 H     0.07116    0.01078    0.05268

System changes: positions 

Initializing position-dependent things.

Density initialized from wave functions
                    
                    
                    
                    
       H            
         O H        
                    
                    
                    
                    

Positions:
   0 O      4.952088    5.630466   11.444360    ( 0.0000,  0.0000,  0.0000)
   1 H      4.385130    5.718138   12.232596    ( 0.0000,  0.0000,  0.0000)
   2 H      5.856249    5.740644   11.790219    ( 0.0000,  0.0000,  0.0000)

Unit cell:
           periodic     x           y           z      points  spacing
  1. axis:    yes   10.341746    0.000000    0.000000    54     0.1915
  2. axis:    yes   -0.000000   11.467000    0.000000    60     0.1911
  3. axis:    no     0.000000    0.000000   23.497201   125     0.1880

  Lengths:  10.341746  11.467000  23.497201
  Angles:   90.000000  90.000000  90.000000

Effective grid spacing dv^(1/3) = 0.1902

                     log10-error:    total        iterations:
           time      wfs    density  energy       fermi  poisson
iter:   1  00:56:06  -1.73   +inf   -14.037495    0             
iter:   2  00:56:07  -3.18  -2.21   -14.037773    0             
iter:   3  00:56:08  -3.95  -2.21   -14.037427    0             
iter:   4  00:56:09  -3.77  -2.34   -14.037206    0             
iter:   5  00:56:10  -4.60  -2.76   -14.037156    0             
iter:   6  00:56:11  -5.00  -3.01   -14.037165    0             
iter:   7  00:56:12  -5.21  -3.23   -14.037166    0             
iter:   8  00:56:13  -5.76  -3.23   -14.037164    0             
iter:   9  00:56:14  -6.51  -3.68   -14.037163    0             
iter:  10  00:56:15  -6.34  -3.83   -14.037162    0             
iter:  11  00:56:16  -6.16  -3.97   -14.037164    0             
iter:  12  00:56:17  -6.41  -3.83   -14.037162    0             
iter:  13  00:56:18  -7.06  -4.48   -14.037162    0             
iter:  14  00:56:19  -8.05  -4.95   -14.037162    0             

Converged after 14 iterations.

Dipole moment: (0.105908, 0.061821, 0.353075) |e|*Ang

Energy contributions relative to reference atoms: (reference = -2065.832626)

Kinetic:        +12.228332
Potential:      -14.001855
External:        +0.000000
XC:             -12.315506
Entropy (-ST):   -0.000000
Local:           +0.051867
--------------------------
Free energy:    -14.037162
Extrapolated:   -14.037162

Fermi level: -4.34081

Showing only first 2 kpts
 Kpt  Band  Eigenvalues  Occupancy
  0     2     -9.31482    0.22222
  0     3     -7.18160    0.22222
  0     4     -1.01465    0.00000
  0     5      0.02921    0.00000

  1     2     -9.31501    0.44444
  1     3     -7.18260    0.44444
  1     4     -0.99561    0.00000
  1     5      0.11563    0.00000



Forces in eV/Ang:
  0 O    -0.00333   -0.01052    0.07570
  1 H     0.04610   -0.00119   -0.03630
  2 H    -0.02706    0.00025    0.00217

System changes: positions 

Initializing position-dependent things.

Density initialized from wave functions
                    
                    
                    
                    
       H            
         O H        
                    
                    
                    
                    

Positions:
   0 O      4.929012    5.603839   11.463294    ( 0.0000,  0.0000,  0.0000)
   1 H      4.379151    5.716507   12.258902    ( 0.0000,  0.0000,  0.0000)
   2 H      5.841301    5.740758   11.789723    ( 0.0000,  0.0000,  0.0000)

Unit cell:
           periodic     x           y           z      points  spacing
  1. axis:    yes   10.341746    0.000000    0.000000    54     0.1915
  2. axis:    yes   -0.000000   11.467000    0.000000    60     0.1911
  3. axis:    no     0.000000    0.000000   23.497201   125     0.1880

  Lengths:  10.341746  11.467000  23.497201
  Angles:   90.000000  90.000000  90.000000

Effective grid spacing dv^(1/3) = 0.1902

                     log10-error:    total        iterations:
           time      wfs    density  energy       fermi  poisson
iter:   1  00:56:20  -1.73   +inf   -14.037962    0             
iter:   2  00:56:21  -3.18  -2.21   -14.038251    0             
iter:   3  00:56:22  -4.03  -2.22   -14.037973    0             
iter:   4  00:56:23  -3.85  -2.33   -14.037726    0             
iter:   5  00:56:24  -5.13  -2.86   -14.037713    0             
iter:   6  00:56:25  -4.81  -2.99   -14.037712    0             
iter:   7  00:56:26  -5.18  -3.27   -14.037716    0             
iter:   8  00:56:27  -5.12  -3.21   -14.037725    0             
iter:   9  00:56:28  -5.46  -3.29   -14.037709    0             
iter:  10  00:56:29  -5.92  -3.71   -14.037708    0             
iter:  11  00:56:30  -6.60  -3.95   -14.037708    0             
iter:  12  00:56:31  -6.51  -3.97   -14.037709    0             
iter:  13  00:56:32  -6.85  -4.00   -14.037708    0             
iter:  14  00:56:33  -7.19  -4.50   -14.037708    0             
iter:  15  00:56:34  -8.54  -4.91   -14.037708    0             

Converged after 15 iterations.

Dipole moment: (0.112998, 0.078017, 0.348880) |e|*Ang

Energy contributions relative to reference atoms: (reference = -2065.832626)

Kinetic:        +12.106856
Potential:      -13.915922
External:        +0.000000
XC:             -12.280354
Entropy (-ST):   -0.000000
Local:           +0.051712
--------------------------
Free energy:    -14.037708
Extrapolated:   -14.037708

Fermi level: -4.34081

Showing only first 2 kpts
 Kpt  Band  Eigenvalues  Occupancy
  0     2     -9.32626    0.22222
  0     3     -7.18012    0.22222
  0     4     -1.01818    0.00000
  0     5      0.02897    0.00000

  1     2     -9.32647    0.44444
  1     3     -7.18110    0.44444
  1     4     -0.99933    0.00000
  1     5      0.11578    0.00000



Forces in eV/Ang:
  0 O     0.23648   -0.01973    0.06853
  1 H    -0.00817    0.00353    0.01166
  2 H    -0.20696   -0.03056   -0.07955

System changes: positions 

Initializing position-dependent things.

Density initialized from wave functions
                    
                    
                    
                    
       H            
         O H        
                    
                    
                    
                    

Positions:
   0 O      4.936573    5.610125   11.459147    ( 0.0000,  0.0000,  0.0000)
   1 H      4.381669    5.716914   12.252417    ( 0.0000,  0.0000,  0.0000)
   2 H      5.842655    5.740522   11.789747    ( 0.0000,  0.0000,  0.0000)

Unit cell:
           periodic     x           y           z      points  spacing
  1. axis:    yes   10.341746    0.000000    0.000000    54     0.1915
  2. axis:    yes   -0.000000   11.467000    0.000000    60     0.1911
  3. axis:    no     0.000000    0.000000   23.497201   125     0.1880

  Lengths:  10.341746  11.467000  23.497201
  Angles:   90.000000  90.000000  90.000000

Effective grid spacing dv^(1/3) = 0.1902

                     log10-error:    total        iterations:
           time      wfs    density  energy       fermi  poisson
iter:   1  00:56:36  -2.87   +inf   -14.038103    0             
iter:   2  00:56:37  -4.41  -2.73   -14.038107    0             
iter:   3  00:56:38  -4.75  -2.74   -14.038032    0             
iter:   4  00:56:39  -4.93  -2.98   -14.038022    0             
iter:   5  00:56:40  -5.00  -3.26   -14.038029    0             
iter:   6  00:56:41  -5.68  -3.34   -14.038021    0             
iter:   7  00:56:42  -6.29  -3.63   -14.038024    0             
iter:   8  00:56:43  -5.48  -3.51   -14.038020    0             
iter:   9  00:56:44  -6.87  -4.09   -14.038020    0             
iter:  10  00:56:44  -7.50  -4.39   -14.038020    0             

Converged after 10 iterations.

Dipole moment: (0.110292, 0.074380, 0.350059) |e|*Ang

Energy contributions relative to reference atoms: (reference = -2065.832626)

Kinetic:        +12.334743
Potential:      -14.082223
External:        +0.000000
XC:             -12.342561
Entropy (-ST):   -0.000000
Local:           +0.052020
--------------------------
Free energy:    -14.038020
Extrapolated:   -14.038020

Fermi level: -4.34081

Showing only first 2 kpts
 Kpt  Band  Eigenvalues  Occupancy
  0     2     -9.32604    0.22222
  0     3     -7.18466    0.22222
  0     4     -1.01132    0.00000
  0     5      0.02952    0.00000

  1     2     -9.32626    0.44444
  1     3     -7.18564    0.44444
  1     4     -0.99218    0.00000
  1     5      0.11621    0.00000



Forces in eV/Ang:
  0 O    -0.00851   -0.04756    0.00656
  1 H     0.00132    0.00092   -0.00529
  2 H     0.03264    0.00494    0.00417

System changes: positions 

Initializing position-dependent things.

Density initialized from wave functions
                    
                    
                    
                    
       H            
         O H        
                    
                    
                    
                    

Positions:
   0 O      4.928162    5.600622   11.466920    ( 0.0000,  0.0000,  0.0000)
   1 H      4.380512    5.716257   12.261296    ( 0.0000,  0.0000,  0.0000)
   2 H      5.836899    5.740554   11.789783    ( 0.0000,  0.0000,  0.0000)

Unit cell:
           periodic     x           y           z      points  spacing
  1. axis:    yes   10.341746    0.000000    0.000000    54     0.1915
  2. axis:    yes   -0.000000   11.467000    0.000000    60     0.1911
  3. axis:    no     0.000000    0.000000   23.497201   125     0.1880

  Lengths:  10.341746  11.467000  23.497201
  Angles:   90.000000  90.000000  90.000000

Effective grid spacing dv^(1/3) = 0.1902

                     log10-error:    total        iterations:
           time      wfs    density  energy       fermi  poisson
iter:   1  00:56:46  -2.59   +inf   -14.038327    0             
iter:   2  00:56:47  -4.05  -2.63   -14.038356    0             
iter:   3  00:56:48  -4.72  -2.63   -14.038290    0             
iter:   4  00:56:49  -4.59  -2.76   -14.038254    0             
iter:   5  00:56:50  -4.98  -3.09   -14.038247    0             
iter:   6  00:56:51  -6.19  -3.44   -14.038246    0             
iter:   7  00:56:52  -5.40  -3.64   -14.038250    0             
iter:   8  00:56:53  -5.72  -3.52   -14.038245    0             
iter:   9  00:56:54  -7.41  -4.31   -14.038245    0             

Converged after 9 iterations.

Dipole moment: (0.113123, 0.080048, 0.348258) |e|*Ang

Energy contributions relative to reference atoms: (reference = -2065.832626)

Kinetic:        +12.394118
Potential:      -14.126325
External:        +0.000000
XC:             -12.356979
Entropy (-ST):   -0.000000
Local:           +0.050941
--------------------------
Free energy:    -14.038245
Extrapolated:   -14.038245

Fermi level: -4.34081

Showing only first 2 kpts
 Kpt  Band  Eigenvalues  Occupancy
  0     2     -9.33034    0.22222
  0     3     -7.18584    0.22222
  0     4     -1.00955    0.00000
  0     5      0.02962    0.00000

  1     2     -9.33056    0.44444
  1     3     -7.18682    0.44444
  1     4     -0.99034    0.00000
  1     5      0.11642    0.00000



Forces in eV/Ang:
  0 O     0.10384   -0.06021   -0.06741
  1 H    -0.06894    0.01265    0.08255
  2 H    -0.01993   -0.00467   -0.02315

System changes: positions 

Initializing position-dependent things.

Density initialized from wave functions
                    
                    
                    
                    
       H            
         O H        
                    
                    
                    
                    

Positions:
   0 O      4.925647    5.597544   11.469381    ( 0.0000,  0.0000,  0.0000)
   1 H      4.380503    5.716156   12.264726    ( 0.0000,  0.0000,  0.0000)
   2 H      5.834606    5.740523   11.790063    ( 0.0000,  0.0000,  0.0000)

Unit cell:
           periodic     x           y           z      points  spacing
  1. axis:    yes   10.341746    0.000000    0.000000    54     0.1915
  2. axis:    yes   -0.000000   11.467000    0.000000    60     0.1911
  3. axis:    no     0.000000    0.000000   23.497201   125     0.1880

  Lengths:  10.341746  11.467000  23.497201
  Angles:   90.000000  90.000000  90.000000

Effective grid spacing dv^(1/3) = 0.1902

                     log10-error:    total        iterations:
           time      wfs    density  energy       fermi  poisson
iter:   1  00:56:55  -3.55   +inf   -14.038305    0             
iter:   2  00:56:56  -5.01  -3.06   -14.038307    0             
iter:   3  00:56:57  -5.37  -3.07   -14.038294    0             
iter:   4  00:56:58  -5.50  -3.27   -14.038292    0             
iter:   5  00:56:59  -5.20  -3.52   -14.038297    0             
iter:   6  00:57:00  -5.67  -3.48   -14.038290    0             
iter:   7  00:57:01  -7.10  -4.01   -14.038290    0             
iter:   8  00:57:02  -7.21  -4.06   -14.038290    0             
iter:   9  00:57:03  -6.82  -4.46   -14.038290    0             
iter:  10  00:57:04  -8.16  -4.40   -14.038290    0             

Converged after 10 iterations.

Dipole moment: (0.113921, 0.082002, 0.347834) |e|*Ang

Energy contributions relative to reference atoms: (reference = -2065.832626)

Kinetic:        +12.417471
Potential:      -14.144762
External:        +0.000000
XC:             -12.362034
Entropy (-ST):   -0.000000
Local:           +0.051035
--------------------------
Free energy:    -14.038290
Extrapolated:   -14.038290

Fermi level: -4.34081

Showing only first 2 kpts
 Kpt  Band  Eigenvalues  Occupancy
  0     2     -9.33479    0.22222
  0     3     -7.18650    0.22222
  0     4     -1.00907    0.00000
  0     5      0.02966    0.00000

  1     2     -9.33501    0.44444
  1     3     -7.18748    0.44444
  1     4     -0.98985    0.00000
  1     5      0.11648    0.00000



Forces in eV/Ang:
  0 O     0.11519   -0.06296   -0.07871
  1 H    -0.08302    0.01350    0.09080
  2 H    -0.01155   -0.00516   -0.02781

System changes: positions 

Initializing position-dependent things.

Density initialized from wave functions
                    
                    
                    
                    
       H            
         O H        
                    
                    
                    
                    

Positions:
   0 O      4.923500    5.594029   11.472713    ( 0.0000,  0.0000,  0.0000)
   1 H      4.380835    5.716364   12.269743    ( 0.0000,  0.0000,  0.0000)
   2 H      5.832010    5.740416   11.790695    ( 0.0000,  0.0000,  0.0000)

Unit cell:
           periodic     x           y           z      points  spacing
  1. axis:    yes   10.341746    0.000000    0.000000    54     0.1915
  2. axis:    yes   -0.000000   11.467000    0.000000    60     0.1911
  3. axis:    no     0.000000    0.000000   23.497201   125     0.1880

  Lengths:  10.341746  11.467000  23.497201
  Angles:   90.000000  90.000000  90.000000

Effective grid spacing dv^(1/3) = 0.1902

                     log10-error:    total        iterations:
           time      wfs    density  energy       fermi  poisson
iter:   1  00:57:05  -3.39   +inf   -14.038444    0             
iter:   2  00:57:06  -4.84  -2.92   -14.038443    0             
iter:   3  00:57:07  -4.74  -2.93   -14.038402    0             
iter:   4  00:57:08  -5.34  -3.29   -14.038403    0             
iter:   5  00:57:09  -4.78  -3.39   -14.038419    0             
iter:   6  00:57:10  -5.26  -3.24   -14.038398    0             
iter:   7  00:57:11  -6.86  -3.82   -14.038399    0             
iter:   8  00:57:12  -6.54  -3.78   -14.038398    0             
iter:   9  00:57:13  -6.43  -4.20   -14.038398    0             
iter:  10  00:57:14  -7.84  -4.32   -14.038398    0             

Converged after 10 iterations.

Dipole moment: (0.114662, 0.084223, 0.347437) |e|*Ang

Energy contributions relative to reference atoms: (reference = -2065.832626)

Kinetic:        +12.439838
Potential:      -14.161959
External:        +0.000000
XC:             -12.367051
Entropy (-ST):   -0.000000
Local:           +0.050773
--------------------------
Free energy:    -14.038398
Extrapolated:   -14.038398

Fermi level: -4.34081

Showing only first 2 kpts
 Kpt  Band  Eigenvalues  Occupancy
  0     2     -9.34035    0.22222
  0     3     -7.18745    0.22222
  0     4     -1.00866    0.00000
  0     5      0.02975    0.00000

  1     2     -9.34057    0.44444
  1     3     -7.18842    0.44444
  1     4     -0.98942    0.00000
  1     5      0.11658    0.00000



Forces in eV/Ang:
  0 O     0.06749   -0.06368   -0.07171
  1 H    -0.07862    0.00973    0.06957
  2 H     0.03169   -0.00031   -0.02206

System changes: positions 

Initializing position-dependent things.

Density initialized from wave functions
                    
                    
                    
                    
       H            
         O H        
                    
                    
                    
                    

Positions:
   0 O      4.919826    5.588454   11.478826    ( 0.0000,  0.0000,  0.0000)
   1 H      4.380349    5.716752   12.277789    ( 0.0000,  0.0000,  0.0000)
   2 H      5.829267    5.740282   11.791187    ( 0.0000,  0.0000,  0.0000)

Unit cell:
           periodic     x           y           z      points  spacing
  1. axis:    yes   10.341746    0.000000    0.000000    54     0.1915
  2. axis:    yes   -0.000000   11.467000    0.000000    60     0.1911
  3. axis:    no     0.000000    0.000000   23.497201   125     0.1880

  Lengths:  10.341746  11.467000  23.497201
  Angles:   90.000000  90.000000  90.000000

Effective grid spacing dv^(1/3) = 0.1902

                     log10-error:    total        iterations:
           time      wfs    density  energy       fermi  poisson
iter:   1  00:57:15  -2.96   +inf   -14.038573    0             
iter:   2  00:57:16  -4.41  -2.78   -14.038580    0             
iter:   3  00:57:17  -4.66  -2.79   -14.038518    0             
iter:   4  00:57:18  -4.92  -3.03   -14.038515    0             
iter:   5  00:57:19  -4.62  -3.20   -14.038533    0             
iter:   6  00:57:20  -5.06  -3.17   -14.038506    0             
iter:   7  00:57:21  -6.33  -3.74   -14.038507    0             
iter:   8  00:57:22  -6.54  -3.81   -14.038507    0             
iter:   9  00:57:23  -6.39  -4.29   -14.038507    0             
iter:  10  00:57:24  -7.71  -4.07   -14.038507    0             

Converged after 10 iterations.

Dipole moment: (0.116010, 0.087758, 0.346231) |e|*Ang

Energy contributions relative to reference atoms: (reference = -2065.832626)

Kinetic:        +12.424145
Potential:      -14.150852
External:        +0.000000
XC:             -12.362267
Entropy (-ST):   -0.000000
Local:           +0.050467
--------------------------
Free energy:    -14.038507
Extrapolated:   -14.038507

Fermi level: -4.34081

Showing only first 2 kpts
 Kpt  Band  Eigenvalues  Occupancy
  0     2     -9.33974    0.22222
  0     3     -7.18660    0.22222
  0     4     -1.00892    0.00000
  0     5      0.02984    0.00000

  1     2     -9.33997    0.44444
  1     3     -7.18757    0.44444
  1     4     -0.98970    0.00000
  1     5      0.11672    0.00000



Forces in eV/Ang:
  0 O     0.04496   -0.05998   -0.06434
  1 H    -0.06196    0.00627    0.04532
  2 H     0.03728    0.00044   -0.02058

System changes: positions 

Initializing position-dependent things.

Density initialized from wave functions
                    
                    
                    
                    
       H            
         O H        
                    
                    
                    
                    

Positions:
   0 O      4.918975    5.586420   11.481719    ( 0.0000,  0.0000,  0.0000)
   1 H      4.379990    5.717182   12.281342    ( 0.0000,  0.0000,  0.0000)
   2 H      5.829259    5.740198   11.791288    ( 0.0000,  0.0000,  0.0000)

Unit cell:
           periodic     x           y           z      points  spacing
  1. axis:    yes   10.341746    0.000000    0.000000    54     0.1915
  2. axis:    yes   -0.000000   11.467000    0.000000    60     0.1911
  3. axis:    no     0.000000    0.000000   23.497201   125     0.1880

  Lengths:  10.341746  11.467000  23.497201
  Angles:   90.000000  90.000000  90.000000

Effective grid spacing dv^(1/3) = 0.1902

                     log10-error:    total        iterations:
           time      wfs    density  energy       fermi  poisson
iter:   1  00:57:25  -3.72   +inf   -14.038580    0             
iter:   2  00:57:26  -5.17  -3.17   -14.038580    0             
iter:   3  00:57:27  -5.36  -3.17   -14.038565    0             
iter:   4  00:57:28  -5.47  -3.41   -14.038565    0             
iter:   5  00:57:29  -5.63  -3.53   -14.038564    0             
iter:   6  00:57:30  -6.33  -3.70   -14.038563    0             
iter:   7  00:57:31  -6.57  -4.14   -14.038563    0             
iter:   8  00:57:32  -7.18  -4.18   -14.038563    0             
iter:   9  00:57:33  -7.63  -4.79   -14.038563    0             

Converged after 9 iterations.

Dipole moment: (0.116445, 0.089149, 0.345467) |e|*Ang

Energy contributions relative to reference atoms: (reference = -2065.832626)

Kinetic:        +12.373348
Potential:      -14.112255
External:        +0.000000
XC:             -12.350184
Entropy (-ST):   -0.000000
Local:           +0.050527
--------------------------
Free energy:    -14.038563
Extrapolated:   -14.038563

Fermi level: -4.34081

Showing only first 2 kpts
 Kpt  Band  Eigenvalues  Occupancy
  0     2     -9.33625    0.22222
  0     3     -7.18658    0.22222
  0     4     -1.00985    0.00000
  0     5      0.02987    0.00000

  1     2     -9.33649    0.44444
  1     3     -7.18755    0.44444
  1     4     -0.99067    0.00000
  1     5      0.11676    0.00000



Forces in eV/Ang:
  0 O     0.03577   -0.05358   -0.04949
  1 H    -0.03867    0.00365    0.02349
  2 H     0.02477    0.00005   -0.01729

System changes: positions 

Initializing position-dependent things.

Density initialized from wave functions
                    
                    
                    
                    
       H            
         O H        
                    
                    
                    
                    

Positions:
   0 O      4.920381    5.586819   11.482183    ( 0.0000,  0.0000,  0.0000)
   1 H      4.380036    5.717670   12.281593    ( 0.0000,  0.0000,  0.0000)
   2 H      5.831100    5.740146   11.791225    ( 0.0000,  0.0000,  0.0000)

Unit cell:
           periodic     x           y           z      points  spacing
  1. axis:    yes   10.341746    0.000000    0.000000    54     0.1915
  2. axis:    yes   -0.000000   11.467000    0.000000    60     0.1911
  3. axis:    no     0.000000    0.000000   23.497201   125     0.1880

  Lengths:  10.341746  11.467000  23.497201
  Angles:   90.000000  90.000000  90.000000

Effective grid spacing dv^(1/3) = 0.1902

                     log10-error:    total        iterations:
           time      wfs    density  energy       fermi  poisson
iter:   1  00:57:35  -4.41   +inf   -14.038607    0             
iter:   2  00:57:36  -5.95  -3.53   -14.038607    0             
iter:   3  00:57:37  -6.16  -3.53   -14.038605    0             
iter:   4  00:57:38  -6.36  -3.79   -14.038605    0             
iter:   5  00:57:39  -6.04  -3.89   -14.038605    0             
iter:   6  00:57:40  -6.68  -3.94   -14.038605    0             
iter:   7  00:57:41  -8.38  -4.43   -14.038605    0             

Converged after 7 iterations.

Dipole moment: (0.116168, 0.089055, 0.345156) |e|*Ang

Energy contributions relative to reference atoms: (reference = -2065.832626)

Kinetic:        +12.325350
Potential:      -14.074440
External:        +0.000000
XC:             -12.338783
Entropy (-ST):   -0.000000
Local:           +0.049268
--------------------------
Free energy:    -14.038605
Extrapolated:   -14.038605

Fermi level: -4.34081

Showing only first 2 kpts
 Kpt  Band  Eigenvalues  Occupancy
  0     2     -9.33097    0.22222
  0     3     -7.18618    0.22222
  0     4     -1.01072    0.00000
  0     5      0.02986    0.00000

  1     2     -9.33120    0.44444
  1     3     -7.18715    0.44444
  1     4     -0.99157    0.00000
  1     5      0.11676    0.00000



Forces in eV/Ang:
  0 O     0.02545   -0.05066   -0.02944
  1 H    -0.01275    0.00158    0.00274
  2 H     0.01267    0.00001   -0.01121

System changes: positions 

Initializing position-dependent things.

Density initialized from wave functions
                    
                    
                    
                    
       H            
         O H        
                    
                    
                    
                    

Positions:
   0 O      4.921848    5.586014   11.483581    ( 0.0000,  0.0000,  0.0000)
   1 H      4.380504    5.718354   12.282760    ( 0.0000,  0.0000,  0.0000)
   2 H      5.833097    5.740063   11.791283    ( 0.0000,  0.0000,  0.0000)

Unit cell:
           periodic     x           y           z      points  spacing
  1. axis:    yes   10.341746    0.000000    0.000000    54     0.1915
  2. axis:    yes   -0.000000   11.467000    0.000000    60     0.1911
  3. axis:    no     0.000000    0.000000   23.497201   125     0.1880

  Lengths:  10.341746  11.467000  23.497201
  Angles:   90.000000  90.000000  90.000000

Effective grid spacing dv^(1/3) = 0.1902

                     log10-error:    total        iterations:
           time      wfs    density  energy       fermi  poisson
iter:   1  00:57:42  -4.15   +inf   -14.038634    0             
iter:   2  00:57:43  -5.61  -3.42   -14.038635    0             
iter:   3  00:57:44  -6.27  -3.43   -14.038632    0             
iter:   4  00:57:45  -6.06  -3.56   -14.038632    0             
iter:   5  00:57:46  -7.52  -3.80   -14.038632    0             
iter:   6  00:57:47  -5.97  -3.81   -14.038633    0             
iter:   7  00:57:48  -6.80  -3.92   -14.038632    0             
iter:   8  00:57:49  -8.38  -4.28   -14.038632    0             

Converged after 8 iterations.

Dipole moment: (0.116094, 0.089718, 0.344661) |e|*Ang

Energy contributions relative to reference atoms: (reference = -2065.832626)

Kinetic:        +12.277143
Potential:      -14.037032
External:        +0.000000
XC:             -12.327897
Entropy (-ST):   -0.000000
Local:           +0.049155
--------------------------
Free energy:    -14.038632
Extrapolated:   -14.038632

Fermi level: -4.34081

Showing only first 2 kpts
 Kpt  Band  Eigenvalues  Occupancy
  0     2     -9.32509    0.22222
  0     3     -7.18543    0.22222
  0     4     -1.01157    0.00000
  0     5      0.02987    0.00000

  1     2     -9.32533    0.44444
  1     3     -7.18639    0.44444
  1     4     -0.99246    0.00000
  1     5      0.11678    0.00000



Forces in eV/Ang:
  0 O     0.01112   -0.04549   -0.01714
  1 H     0.01258   -0.00051   -0.01705
  2 H    -0.00183    0.00018   -0.00566

System changes: positions 

Initializing position-dependent things.

Density initialized from wave functions
                    
                    
                    
                    
       H            
         O H        
                    
                    
                    
                    

Positions:
   0 O      4.923277    5.585664   11.483439    ( 0.0000,  0.0000,  0.0000)
   1 H      4.381478    5.718737   12.282286    ( 0.0000,  0.0000,  0.0000)
   2 H      5.834517    5.740030   11.791427    ( 0.0000,  0.0000,  0.0000)

Unit cell:
           periodic     x           y           z      points  spacing
  1. axis:    yes   10.341746    0.000000    0.000000    54     0.1915
  2. axis:    yes   -0.000000   11.467000    0.000000    60     0.1911
  3. axis:    no     0.000000    0.000000   23.497201   125     0.1880

  Lengths:  10.341746  11.467000  23.497201
  Angles:   90.000000  90.000000  90.000000

Effective grid spacing dv^(1/3) = 0.1902

                     log10-error:    total        iterations:
           time      wfs    density  energy       fermi  poisson
iter:   1  00:57:50  -4.49   +inf   -14.038686    0             
iter:   2  00:57:51  -6.01  -3.62   -14.038686    0             
iter:   3  00:57:52  -6.90  -3.63   -14.038686    0             
iter:   4  00:57:53  -6.23  -3.71   -14.038686    0             
iter:   5  00:57:54  -7.44  -4.04   -14.038686    0             

Converged after 5 iterations.

Dipole moment: (0.115737, 0.090056, 0.344663) |e|*Ang

Energy contributions relative to reference atoms: (reference = -2065.832626)

Kinetic:        +12.264046
Potential:      -14.027441
External:        +0.000000
XC:             -12.324694
Entropy (-ST):   -0.000000
Local:           +0.049402
--------------------------
Free energy:    -14.038686
Extrapolated:   -14.038686

Fermi level: -4.34081

Showing only first 2 kpts
 Kpt  Band  Eigenvalues  Occupancy
  0     2     -9.32500    0.22222
  0     3     -7.18557    0.22222
  0     4     -1.01195    0.00000
  0     5      0.02985    0.00000

  1     2     -9.32524    0.44444
  1     3     -7.18654    0.44444
  1     4     -0.99285    0.00000
  1     5      0.11675    0.00000



Forces in eV/Ang:
  0 O     0.01893   -0.04512   -0.01579
  1 H     0.01736   -0.00003   -0.02072
  2 H    -0.00588   -0.00123   -0.00699

System changes: positions 

Initializing position-dependent things.

Density initialized from wave functions
                    
                    
                    
                    
       H            
        O  H        
                    
                    
                    
                    

Positions:
   0 O      4.930434    5.576354   11.487151    ( 0.0000,  0.0000,  0.0000)
   1 H      4.389916    5.721703   12.284926    ( 0.0000,  0.0000,  0.0000)
   2 H      5.841643    5.739618   11.793108    ( 0.0000,  0.0000,  0.0000)

Unit cell:
           periodic     x           y           z      points  spacing
  1. axis:    yes   10.341746    0.000000    0.000000    54     0.1915
  2. axis:    yes   -0.000000   11.467000    0.000000    60     0.1911
  3. axis:    no     0.000000    0.000000   23.497201   125     0.1880

  Lengths:  10.341746  11.467000  23.497201
  Angles:   90.000000  90.000000  90.000000

Effective grid spacing dv^(1/3) = 0.1902

                     log10-error:    total        iterations:
           time      wfs    density  energy       fermi  poisson
iter:   1  00:57:55  -2.67   +inf   -14.039134    0             
iter:   2  00:57:56  -4.07  -2.65   -14.039171    0             
iter:   3  00:57:57  -4.92  -2.65   -14.039146    0             
iter:   4  00:57:58  -4.54  -2.72   -14.039098    0             
iter:   5  00:57:59  -5.86  -3.20   -14.039096    0             
iter:   6  00:58:00  -5.08  -3.33   -14.039094    0             
iter:   7  00:58:01  -5.74  -3.61   -14.039091    0             
iter:   8  00:58:02  -7.14  -3.77   -14.039091    0             
iter:   9  00:58:03  -6.46  -3.86   -14.039091    0             
iter:  10  00:58:04  -8.09  -4.11   -14.039091    0             

Converged after 10 iterations.

Dipole moment: (0.116182, 0.096547, 0.343488) |e|*Ang

Energy contributions relative to reference atoms: (reference = -2065.832626)

Kinetic:        +12.251873
Potential:      -14.022607
External:        +0.000000
XC:             -12.317578
Entropy (-ST):   -0.000000
Local:           +0.049220
--------------------------
Free energy:    -14.039091
Extrapolated:   -14.039091

Fermi level: -4.34081

Showing only first 2 kpts
 Kpt  Band  Eigenvalues  Occupancy
  0     2     -9.33002    0.22222
  0     3     -7.18336    0.22222
  0     4     -1.01349    0.00000
  0     5      0.02987    0.00000

  1     2     -9.33026    0.44444
  1     3     -7.18431    0.44444
  1     4     -0.99446    0.00000
  1     5      0.11683    0.00000



Forces in eV/Ang:
  0 O     0.05098   -0.03163    0.00179
  1 H     0.00972   -0.00445   -0.03034
  2 H    -0.03875   -0.00926   -0.02908

System changes: positions 

Initializing position-dependent things.

Density initialized from wave functions
                    
                    
                    
                    
       H            
        O  H        
                    
                    
                    
                    

Positions:
   0 O      4.949211    5.556483   11.492719    ( 0.0000,  0.0000,  0.0000)
   1 H      4.410572    5.727787   12.285188    ( 0.0000,  0.0000,  0.0000)
   2 H      5.857474    5.738540   11.796100    ( 0.0000,  0.0000,  0.0000)

Unit cell:
           periodic     x           y           z      points  spacing
  1. axis:    yes   10.341746    0.000000    0.000000    54     0.1915
  2. axis:    yes   -0.000000   11.467000    0.000000    60     0.1911
  3. axis:    no     0.000000    0.000000   23.497201   125     0.1880

  Lengths:  10.341746  11.467000  23.497201
  Angles:   90.000000  90.000000  90.000000

Effective grid spacing dv^(1/3) = 0.1902

                     log10-error:    total        iterations:
           time      wfs    density  energy       fermi  poisson
iter:   1  00:58:06  -1.97   +inf   -14.039940    0             
iter:   2  00:58:07  -3.39  -2.30   -14.040104    0             
iter:   3  00:58:08  -4.18  -2.30   -14.039939    0             
iter:   4  00:58:09  -3.79  -2.37   -14.039729    0             
iter:   5  00:58:10  -5.27  -2.78   -14.039697    0             
iter:   6  00:58:11  -4.51  -2.95   -14.039686    0             
iter:   7  00:58:12  -5.85  -3.32   -14.039680    0             
iter:   8  00:58:13  -5.87  -3.41   -14.039678    0             
iter:   9  00:58:14  -5.93  -3.51   -14.039679    0             
iter:  10  00:58:15  -6.83  -3.86   -14.039679    0             
iter:  11  00:58:16  -6.15  -3.81   -14.039678    0             
iter:  12  00:58:17  -7.37  -4.47   -14.039678    0             
iter:  13  00:58:18  -7.98  -4.57   -14.039678    0             

Converged after 13 iterations.

Dipole moment: (0.115725, 0.110495, 0.340746) |e|*Ang

Energy contributions relative to reference atoms: (reference = -2065.832626)

Kinetic:        +12.333925
Potential:      -14.086119
External:        +0.000000
XC:             -12.335658
Entropy (-ST):   -0.000000
Local:           +0.048174
--------------------------
Free energy:    -14.039678
Extrapolated:   -14.039678

Fermi level: -4.34081

Showing only first 2 kpts
 Kpt  Band  Eigenvalues  Occupancy
  0     2     -9.35336    0.22222
  0     3     -7.18896    0.22222
  0     4     -1.01273    0.00000
  0     5      0.03025    0.00000

  1     2     -9.35362    0.44444
  1     3     -7.18989    0.44444
  1     4     -0.99367    0.00000
  1     5      0.11732    0.00000



Forces in eV/Ang:
  0 O     0.08192   -0.00761   -0.02082
  1 H    -0.05765   -0.00104    0.00924
  2 H    -0.00636   -0.01360   -0.05249

System changes: positions 

Initializing position-dependent things.

Density initialized from wave functions
                    
                    
                    
                    
       H            
        O  H        
                    
                    
                    
                    

Positions:
   0 O      4.953856    5.552576   11.494574    ( 0.0000,  0.0000,  0.0000)
   1 H      4.414351    5.729010   12.284487    ( 0.0000,  0.0000,  0.0000)
   2 H      5.861431    5.738180   11.795891    ( 0.0000,  0.0000,  0.0000)

Unit cell:
           periodic     x           y           z      points  spacing
  1. axis:    yes   10.341746    0.000000    0.000000    54     0.1915
  2. axis:    yes   -0.000000   11.467000    0.000000    60     0.1911
  3. axis:    no     0.000000    0.000000   23.497201   125     0.1880

  Lengths:  10.341746  11.467000  23.497201
  Angles:   90.000000  90.000000  90.000000

Effective grid spacing dv^(1/3) = 0.1902

                     log10-error:    total        iterations:
           time      wfs    density  energy       fermi  poisson
iter:   1  00:58:19  -3.27   +inf   -14.039793    0             
iter:   2  00:58:20  -4.68  -2.97   -14.039799    0             
iter:   3  00:58:21  -5.44  -2.97   -14.039788    0             
iter:   4  00:58:22  -5.06  -3.04   -14.039776    0             
iter:   5  00:58:23  -6.45  -3.31   -14.039774    0             
iter:   6  00:58:24  -5.90  -3.50   -14.039774    0             
iter:   7  00:58:25  -7.25  -4.01   -14.039774    0             
iter:   8  00:58:26  -6.99  -4.01   -14.039774    0             
iter:   9  00:58:27  -6.05  -3.89   -14.039774    0             
iter:  10  00:58:28  -6.94  -4.13   -14.039773    0             
iter:  11  00:58:29  -7.88  -4.65   -14.039773    0             

Converged after 11 iterations.

Dipole moment: (0.115326, 0.113295, 0.339598) |e|*Ang

Energy contributions relative to reference atoms: (reference = -2065.832626)

Kinetic:        +12.389597
Potential:      -14.125067
External:        +0.000000
XC:             -12.352149
Entropy (-ST):   -0.000000
Local:           +0.047845
--------------------------
Free energy:    -14.039773
Extrapolated:   -14.039773

Fermi level: -4.34081

Showing only first 2 kpts
 Kpt  Band  Eigenvalues  Occupancy
  0     2     -9.34912    0.22222
  0     3     -7.18962    0.22222
  0     4     -1.01045    0.00000
  0     5      0.03052    0.00000

  1     2     -9.34938    0.44444
  1     3     -7.19055    0.44444
  1     4     -0.99129    0.00000
  1     5      0.11760    0.00000



Forces in eV/Ang:
  0 O     0.07094   -0.01913   -0.06604
  1 H    -0.07030    0.00589    0.03718
  2 H     0.01708   -0.00777   -0.03932

System changes: positions 

Initializing position-dependent things.

Density initialized from wave functions
                    
                    
                    
                    
       H            
        O  H        
                    
                    
                    
                    

Positions:
   0 O      4.964418    5.543560   11.498318    ( 0.0000,  0.0000,  0.0000)
   1 H      4.423684    5.732190   12.283922    ( 0.0000,  0.0000,  0.0000)
   2 H      5.870859    5.737337   11.795985    ( 0.0000,  0.0000,  0.0000)

Unit cell:
           periodic     x           y           z      points  spacing
  1. axis:    yes   10.341746    0.000000    0.000000    54     0.1915
  2. axis:    yes   -0.000000   11.467000    0.000000    60     0.1911
  3. axis:    no     0.000000    0.000000   23.497201   125     0.1880

  Lengths:  10.341746  11.467000  23.497201
  Angles:   90.000000  90.000000  90.000000

Effective grid spacing dv^(1/3) = 0.1902

                     log10-error:    total        iterations:
           time      wfs    density  energy       fermi  poisson
iter:   1  00:58:30  -2.55   +inf   -14.039859    0             
iter:   2  00:58:31  -3.96  -2.61   -14.039903    0             
iter:   3  00:58:32  -4.83  -2.61   -14.039874    0             
iter:   4  00:58:33  -4.38  -2.66   -14.039812    0             
iter:   5  00:58:34  -5.35  -2.99   -14.039810    0             
iter:   6  00:58:35  -4.94  -3.16   -14.039803    0             
[...]
           time      wfs    density  energy       fermi  poisson
iter:   1  01:12:20  -2.64   +inf   -14.042545    0             
iter:   2  01:12:21  -4.09  -2.51   -14.042545    0             
iter:   3  01:12:22  -3.92  -2.52   -14.042214    0             
iter:   4  01:12:23  -5.43  -3.20   -14.042211    0             
iter:   5  01:12:24  -6.36  -3.20   -14.042211    0             
iter:   6  01:12:25  -4.56  -3.19   -14.042225    0             
iter:   7  01:12:26  -5.80  -3.20   -14.042203    0             
iter:   8  01:12:27  -5.42  -3.42   -14.042200    0             
iter:   9  01:12:28  -5.70  -3.50   -14.042203    0             
iter:  10  01:12:29  -5.80  -3.54   -14.042209    0             
iter:  11  01:12:30  -7.00  -3.38   -14.042208    0             
iter:  12  01:12:31  -6.19  -3.38   -14.042203    0             
iter:  13  01:12:32  -5.68  -3.44   -14.042198    0             
iter:  14  01:12:33  -6.40  -4.02   -14.042198    0             
iter:  15  01:12:34  -7.69  -4.11   -14.042198    0             

Converged after 15 iterations.

Dipole moment: (0.144626, 0.152093, 0.311310) |e|*Ang

Energy contributions relative to reference atoms: (reference = -2065.832626)

Kinetic:        +12.322042
Potential:      -14.072197
External:        +0.000000
XC:             -12.340013
Entropy (-ST):   -0.000000
Local:           +0.047970
--------------------------
Free energy:    -14.042198
Extrapolated:   -14.042198

Fermi level: -4.34081

Showing only first 2 kpts
 Kpt  Band  Eigenvalues  Occupancy
  0     2     -9.32695    0.22222
  0     3     -7.18538    0.22222
  0     4     -1.00644    0.00000
  0     5      0.03240    0.00000

  1     2     -9.32730    0.44444
  1     3     -7.18622    0.44444
  1     4     -0.98730    0.00000
  1     5      0.12095    0.00000



Forces in eV/Ang:
  0 O    -0.02019    0.00887    0.00873
  1 H     0.00778   -0.00457   -0.02285
  2 H     0.02161    0.00213   -0.00536

System changes: positions 

Initializing position-dependent things.

Density initialized from wave functions
                    
                    
                    
                    
       H            
        O  H        
                    
                    
                    
                    

Positions:
   0 O      4.974262    5.529045   11.461538    ( 0.0000,  0.0000,  0.0000)
   1 H      4.500270    5.817882   12.260410    ( 0.0000,  0.0000,  0.0000)
   2 H      5.912129    5.688435   11.668916    ( 0.0000,  0.0000,  0.0000)

Unit cell:
           periodic     x           y           z      points  spacing
  1. axis:    yes   10.341746    0.000000    0.000000    54     0.1915
  2. axis:    yes   -0.000000   11.467000    0.000000    60     0.1911
  3. axis:    no     0.000000    0.000000   23.497201   125     0.1880

  Lengths:  10.341746  11.467000  23.497201
  Angles:   90.000000  90.000000  90.000000

Effective grid spacing dv^(1/3) = 0.1902

                     log10-error:    total        iterations:
           time      wfs    density  energy       fermi  poisson
iter:   1  01:12:35  -1.84   +inf   -14.044140    0             
iter:   2  01:12:36  -3.30  -2.11   -14.044139    0             
iter:   3  01:12:37  -3.15  -2.12   -14.042063    0             
iter:   4  01:12:38  -4.70  -2.84   -14.042044    0             
iter:   5  01:12:39  -5.71  -2.84   -14.042032    0             
iter:   6  01:12:40  -4.84  -2.85   -14.041999    0             
iter:   7  01:12:41  -4.81  -3.19   -14.042002    0             
iter:   8  01:12:42  -6.03  -3.23   -14.041999    0             
iter:   9  01:12:43  -5.16  -3.26   -14.041986    0             
iter:  10  01:12:44  -6.84  -3.88   -14.041986    0             
iter:  11  01:12:45  -7.14  -3.94   -14.041986    0             
iter:  12  01:12:46  -6.97  -3.90   -14.041987    0             
iter:  13  01:12:47  -6.42  -3.88   -14.041986    0             
iter:  14  01:12:48  -7.99  -5.01   -14.041986    0             

Converged after 14 iterations.

Dipole moment: (0.145908, 0.140623, 0.314222) |e|*Ang

Energy contributions relative to reference atoms: (reference = -2065.832626)

Kinetic:        +12.371193
Potential:      -14.105230
External:        +0.000000
XC:             -12.355585
Entropy (-ST):   -0.000000
Local:           +0.047636
--------------------------
Free energy:    -14.041986
Extrapolated:   -14.041986

Fermi level: -4.34081

Showing only first 2 kpts
 Kpt  Band  Eigenvalues  Occupancy
  0     2     -9.30575    0.22222
  0     3     -7.18542    0.22222
  0     4     -1.00397    0.00000
  0     5      0.03224    0.00000

  1     2     -9.30610    0.44444
  1     3     -7.18629    0.44444
  1     4     -0.98467    0.00000
  1     5      0.12041    0.00000



Forces in eV/Ang:
  0 O     0.00267   -0.01734   -0.06104
  1 H     0.00362    0.02289    0.04656
  2 H    -0.00688    0.01095    0.02058

System changes: positions 

Initializing position-dependent things.

Density initialized from wave functions
                    
                    
                    
                    
       H            
        O  H        
                    
                    
                    
                    

Positions:
   0 O      4.966514    5.532827   11.465183    ( 0.0000,  0.0000,  0.0000)
   1 H      4.495624    5.827267   12.266473    ( 0.0000,  0.0000,  0.0000)
   2 H      5.901474    5.716630   11.668762    ( 0.0000,  0.0000,  0.0000)

Unit cell:
           periodic     x           y           z      points  spacing
  1. axis:    yes   10.341746    0.000000    0.000000    54     0.1915
  2. axis:    yes   -0.000000   11.467000    0.000000    60     0.1911
  3. axis:    no     0.000000    0.000000   23.497201   125     0.1880

  Lengths:  10.341746  11.467000  23.497201
  Angles:   90.000000  90.000000  90.000000

Effective grid spacing dv^(1/3) = 0.1902

                     log10-error:    total        iterations:
           time      wfs    density  energy       fermi  poisson
iter:   1  01:12:49  -2.09   +inf   -14.043365    0             
iter:   2  01:12:50  -3.55  -2.22   -14.043360    0             
iter:   3  01:12:51  -3.35  -2.23   -14.042208    0             
iter:   4  01:12:52  -5.06  -2.95   -14.042165    0             
iter:   5  01:12:53  -5.84  -2.97   -14.042170    0             
iter:   6  01:12:54  -4.32  -2.96   -14.042171    0             
iter:   7  01:12:55  -5.84  -3.12   -14.042144    0             
iter:   8  01:12:56  -5.38  -3.30   -14.042148    0             
iter:   9  01:12:57  -4.58  -3.28   -14.042156    0             
iter:  10  01:12:58  -5.47  -3.24   -14.042135    0             
iter:  11  01:12:59  -5.84  -3.67   -14.042133    0             
iter:  12  01:13:00  -6.35  -3.94   -14.042134    0             
iter:  13  01:13:01  -6.68  -3.96   -14.042133    0             
iter:  14  01:13:02  -7.16  -4.56   -14.042133    0             
iter:  15  01:13:03  -8.40  -5.05   -14.042133    0             

Converged after 15 iterations.

Dipole moment: (0.145606, 0.149574, 0.312732) |e|*Ang

Energy contributions relative to reference atoms: (reference = -2065.832626)

Kinetic:        +12.271480
Potential:      -14.038988
External:        +0.000000
XC:             -12.322336
Entropy (-ST):   -0.000000
Local:           +0.047710
--------------------------
Free energy:    -14.042133
Extrapolated:   -14.042133

Fermi level: -4.34081

Showing only first 2 kpts
 Kpt  Band  Eigenvalues  Occupancy
  0     2     -9.33618    0.22222
  0     3     -7.18558    0.22222
  0     4     -1.00924    0.00000
  0     5      0.03210    0.00000

  1     2     -9.33653    0.44444
  1     3     -7.18643    0.44444
  1     4     -0.99019    0.00000
  1     5      0.12051    0.00000



Forces in eV/Ang:
  0 O     0.00773    0.03341    0.06647
  1 H     0.00794   -0.01495   -0.04571
  2 H    -0.00995   -0.00768   -0.02300

System changes: positions 

Initializing position-dependent things.

Density initialized from wave functions
                    
                    
                    
                    
       H            
        O  H        
                    
                    
                    
                    

Positions:
   0 O      4.966625    5.533304   11.466132    ( 0.0000,  0.0000,  0.0000)
   1 H      4.495738    5.827053   12.265820    ( 0.0000,  0.0000,  0.0000)
   2 H      5.901332    5.716520   11.668433    ( 0.0000,  0.0000,  0.0000)

Unit cell:
           periodic     x           y           z      points  spacing
  1. axis:    yes   10.341746    0.000000    0.000000    54     0.1915
  2. axis:    yes   -0.000000   11.467000    0.000000    60     0.1911
  3. axis:    no     0.000000    0.000000   23.497201   125     0.1880

  Lengths:  10.341746  11.467000  23.497201
  Angles:   90.000000  90.000000  90.000000

Effective grid spacing dv^(1/3) = 0.1902

                     log10-error:    total        iterations:
           time      wfs    density  energy       fermi  poisson
iter:   1  01:13:04  -4.46   +inf   -14.042204    0             
iter:   2  01:13:05  -5.99  -3.29   -14.042201    0             
iter:   3  01:13:06  -4.83  -3.31   -14.042192    0             
iter:   4  01:13:07  -6.48  -3.50   -14.042189    0             
iter:   5  01:13:08  -5.78  -3.57   -14.042199    0             
iter:   6  01:13:09  -5.07  -3.33   -14.042187    0             
iter:   7  01:13:10  -6.39  -3.89   -14.042186    0             
iter:   8  01:13:11  -7.72  -4.40   -14.042186    0             

Converged after 8 iterations.

Dipole moment: (0.145613, 0.149361, 0.312264) |e|*Ang

Energy contributions relative to reference atoms: (reference = -2065.832626)

Kinetic:        +12.359019
Potential:      -14.102451
External:        +0.000000
XC:             -12.348101
Entropy (-ST):   -0.000000
Local:           +0.049347
--------------------------
Free energy:    -14.042186
Extrapolated:   -14.042186

Fermi level: -4.34081

Showing only first 2 kpts
 Kpt  Band  Eigenvalues  Occupancy
  0     2     -9.33207    0.22222
  0     3     -7.18768    0.22222
  0     4     -1.00591    0.00000
  0     5      0.03231    0.00000

  1     2     -9.33242    0.44444
  1     3     -7.18853    0.44444
  1     4     -0.98672    0.00000
  1     5      0.12072    0.00000



Forces in eV/Ang:
  0 O     0.01440    0.00322   -0.00609
  1 H    -0.02249    0.00811    0.01584
  2 H     0.01473   -0.00089   -0.01279

System changes: positions 

Initializing position-dependent things.

Density initialized from wave functions
                    
                    
                    
                    
       H            
        O  H        
                    
                    
                    
                    

Positions:
   0 O      4.966822    5.533403   11.466171    ( 0.0000,  0.0000,  0.0000)
   1 H      4.495465    5.827130   12.265942    ( 0.0000,  0.0000,  0.0000)
   2 H      5.901502    5.716495   11.668230    ( 0.0000,  0.0000,  0.0000)

Unit cell:
           periodic     x           y           z      points  spacing
  1. axis:    yes   10.341746    0.000000    0.000000    54     0.1915
  2. axis:    yes   -0.000000   11.467000    0.000000    60     0.1911
  3. axis:    no     0.000000    0.000000   23.497201   125     0.1880

  Lengths:  10.341746  11.467000  23.497201
  Angles:   90.000000  90.000000  90.000000

Effective grid spacing dv^(1/3) = 0.1902

                     log10-error:    total        iterations:
           time      wfs    density  energy       fermi  poisson
iter:   1  01:13:13  -5.65   +inf   -14.042199    0             
iter:   2  01:13:14  -7.12  -3.91   -14.042199    0             
iter:   3  01:13:15  -6.73  -3.91   -14.042198    0             
iter:   4  01:13:16  -6.83  -4.30   -14.042198    0             
iter:   5  01:13:17  -7.96  -4.37   -14.042198    0             

Converged after 5 iterations.

Dipole moment: (0.145523, 0.149322, 0.312212) |e|*Ang

Energy contributions relative to reference atoms: (reference = -2065.832626)

Kinetic:        +12.353614
Potential:      -14.096504
External:        +0.000000
XC:             -12.346024
Entropy (-ST):   -0.000000
Local:           +0.046716
--------------------------
Free energy:    -14.042198
Extrapolated:   -14.042198

Fermi level: -4.34081

Showing only first 2 kpts
 Kpt  Band  Eigenvalues  Occupancy
  0     2     -9.32985    0.22222
  0     3     -7.18716    0.22222
  0     4     -1.00607    0.00000
  0     5      0.03231    0.00000

  1     2     -9.33020    0.44444
  1     3     -7.18801    0.44444
  1     4     -0.98689    0.00000
  1     5      0.12072    0.00000



Forces in eV/Ang:
  0 O    -0.00078    0.00431    0.00090
  1 H    -0.01222    0.00447    0.00477
  2 H     0.01774    0.00114   -0.00884

System changes: positions 

Initializing position-dependent things.

Density initialized from wave functions
                    
                    
                    
                    
       H            
        O  H        
                    
                    
                    
                    

Positions:
   0 O      4.966992    5.533714   11.466398    ( 0.0000,  0.0000,  0.0000)
   1 H      4.494844    5.827308   12.266094    ( 0.0000,  0.0000,  0.0000)
   2 H      5.902205    5.716491   11.667705    ( 0.0000,  0.0000,  0.0000)

Unit cell:
           periodic     x           y           z      points  spacing
  1. axis:    yes   10.341746    0.000000    0.000000    54     0.1915
  2. axis:    yes   -0.000000   11.467000    0.000000    60     0.1911
  3. axis:    no     0.000000    0.000000   23.497201   125     0.1880

  Lengths:  10.341746  11.467000  23.497201
  Angles:   90.000000  90.000000  90.000000

Effective grid spacing dv^(1/3) = 0.1902

                     log10-error:    total        iterations:
           time      wfs    density  energy       fermi  poisson
iter:   1  01:13:18  -5.08   +inf   -14.042214    0             
iter:   2  01:13:19  -6.64  -3.62   -14.042213    0             
iter:   3  01:13:20  -6.50  -3.63   -14.042212    0             
iter:   4  01:13:21  -6.66  -3.96   -14.042212    0             
iter:   5  01:13:22  -7.07  -4.32   -14.042212    0             
iter:   6  01:13:23  -7.44  -4.43   -14.042212    0             

Converged after 6 iterations.

Dipole moment: (0.145452, 0.149214, 0.312031) |e|*Ang

Energy contributions relative to reference atoms: (reference = -2065.832626)

Kinetic:        +12.331076
Potential:      -14.080287
External:        +0.000000
XC:             -12.339866
Entropy (-ST):   -0.000000
Local:           +0.046865
--------------------------
Free energy:    -14.042212
Extrapolated:   -14.042212

Fermi level: -4.34081

Showing only first 2 kpts
 Kpt  Band  Eigenvalues  Occupancy
  0     2     -9.32336    0.22222
  0     3     -7.18502    0.22222
  0     4     -1.00652    0.00000
  0     5      0.03229    0.00000

  1     2     -9.32371    0.44444
  1     3     -7.18587    0.44444
  1     4     -0.98736    0.00000
  1     5      0.12071    0.00000



Forces in eV/Ang:
  0 O     0.00278    0.00569    0.00212
  1 H     0.00374    0.00145   -0.00624
  2 H    -0.00204    0.00071   -0.00518

Timing:                                      incl.     excl.
-------------------------------------------------------------------
Density initialized from wave functions:    16.407    16.405   1.4% ||
 Symmetrize density:                         0.001     0.001   0.0% |
Forces:                                     11.372    11.372   1.0% |
Hamiltonian:                                20.061     1.235   0.1% |
 Atomic:                                     0.030     0.029   0.0% |
  XC Correction:                             0.000     0.000   0.0% |
 Calculate atomic Hamiltonians:              1.086     1.086   0.1% |
 Communicate:                                3.924     3.924   0.3% |
 Initialize Hamiltonian:                     0.001     0.001   0.0% |
 Poisson:                                    0.107     0.107   0.0% |
 XC 3D grid:                                13.678    13.678   1.1% |
LCAO initialization:                         0.391     0.143   0.0% |
 LCAO eigensolver:                           0.005     0.000   0.0% |
  Calculate projections:                     0.000     0.000   0.0% |
  DenseAtomicCorrection:                     0.000     0.000   0.0% |
  Distribute overlap matrix:                 0.003     0.003   0.0% |
  Orbital Layouts:                           0.002     0.002   0.0% |
  Potential matrix:                          0.000     0.000   0.0% |
  Sum over cells:                            0.000     0.000   0.0% |
 LCAO to grid:                               0.231     0.231   0.0% |
 Set positions (LCAO WFS):                   0.013     0.007   0.0% |
  Basic WFS set positions:                   0.000     0.000   0.0% |
  Basis functions set positions:             0.000     0.000   0.0% |
  P tci:                                     0.001     0.001   0.0% |
  ST tci:                                    0.002     0.002   0.0% |
  mktci:                                     0.002     0.002   0.0% |
PWDescriptor:                                0.140     0.140   0.0% |
Redistribute:                                0.110     0.110   0.0% |
SCF-cycle:                                1133.360     0.685   0.1% |
 Davidson:                                 752.883    30.560   2.6% ||
  Apply H:                                 351.236   348.734  29.1% |-----------|
   HMM T:                                    2.502     2.502   0.2% |
  Subspace diag:                           121.405     0.506   0.0% |
   calc_h_matrix:                          117.553     1.541   0.1% |
    Apply H:                               116.012   115.183   9.6% |---|
     HMM T:                                  0.829     0.829   0.1% |
   diagonalize:                              1.634     1.634   0.1% |
   rotate_psi:                               1.711     1.711   0.1% |
  calc. matrices:                          244.181    11.075   0.9% |
   Apply H:                                233.106   231.443  19.3% |-------|
    HMM T:                                   1.663     1.663   0.1% |
  diagonalize:                               3.118     3.118   0.3% |
  rotate_psi:                                2.383     2.383   0.2% |
 Density:                                  172.083     0.025   0.0% |
  Atomic density matrices:                   0.569     0.569   0.0% |
  Mix:                                      72.527    72.527   6.1% |-|
  Multipole moments:                         0.140     0.140   0.0% |
  Pseudo density:                           98.822    98.807   8.3% |--|
   Symmetrize density:                       0.015     0.015   0.0% |
 Hamiltonian:                              206.847    12.753   1.1% |
  Atomic:                                    0.295     0.290   0.0% |
   XC Correction:                            0.005     0.005   0.0% |
  Calculate atomic Hamiltonians:            11.235    11.235   0.9% |
  Communicate:                              40.199    40.199   3.4% ||
  Poisson:                                   1.092     1.092   0.1% |
  XC 3D grid:                              141.273   141.273  11.8% |----|
 Orthonormalize:                             0.863     0.048   0.0% |
  calc_s_matrix:                             0.096     0.096   0.0% |
  inverse-cholesky:                          0.154     0.154   0.0% |
  projections:                               0.499     0.499   0.0% |
  rotate_psi_s:                              0.066     0.066   0.0% |
Set symmetry:                                0.001     0.001   0.0% |
Other:                                      14.635    14.635   1.2% |
-------------------------------------------------------------------
Total:                                              1196.478 100.0%

Memory usage: 284.39 MiB
Date: Sat May 25 01:13:23 2019
