115
Lattice="10.341746277552646 0.0 0.0 -2.619435405085487e-16 11.467 0.0 0.0 0.0 23.497200848665354" Properties=species:S:1:pos:R:3:forces:R:3 energy=-844.9862658487342 dipole="-18.402126322786412 1.5466835997346686 -1.569864499647422" pbc="T T F"
O       8.47657182       1.91117250       6.00000000      -1.85675725       0.00614285       1.57340169 
O       3.30569868       0.00000000       6.00000000      -1.87106880      -0.00018001       1.56823999 
Ti       1.41275186       0.00000000       6.75295684       3.85543969       0.00148129       1.96889227 
Ti       6.58362500       1.91117250       6.75295684       3.84951540      -0.02929375       1.96580557 
Ti       9.52224953       1.91117250       7.64087763      -1.95586515      -0.03595919      -2.11392808 
Ti       4.35137640       0.00000000       7.64087763      -1.90989968       0.00273722      -2.04360558 
O       9.86155132       0.00000000       7.50591367       0.91665874      -0.00388844      -0.19422406 
O       4.69067818       1.91117250       7.50591367       0.87608725       0.08144845      -0.17732515 
O       7.62930272       1.91117250       8.39383447      -0.79942655       0.01720532      -0.50228701 
O       2.45842958       0.00000000       8.39383447      -0.81508687      -0.00669633      -0.54805941 
O       6.24432321       0.00000000       6.88792080      -0.22375259      -0.00110008      -0.73867613 
O       1.07345007       1.91117250       6.88792080      -0.19132338       0.08514879      -0.73199752 
O       9.80836426       1.91031360       9.57982775      -0.00454424       0.00006020       0.00457034 
O       4.64319312       0.00056859       9.58127265      -0.00503336      -0.00112328       0.00714032 
Ti       2.75161029      11.46440556      10.38953035       0.00741485      -0.00000883       0.00535730 
Ti       7.93538095       1.90560057      10.38753923       0.00653516      -0.00666828       0.00356109 
Ti       0.49581148       1.92724709      11.11992826      -0.01183717       0.00084577      -0.01094372 
Ti       5.64884175      11.46319602      11.13269731      -0.01997955      -0.00085694       0.00026207 
O       0.91393586      11.46433357      11.07858590       0.00680339       0.00010719      -0.00723129 
O       6.07789036       1.91483530      11.09309002       0.01121489       0.00044825      -0.01381535 
O       9.04634806       1.91231166      11.94208933       0.00041824       0.00033802      -0.00951158 
O       3.85901422      11.45992072      11.94728823      -0.00202284       0.00049858      -0.01574183 
O       7.55497337      11.46608721      10.44982294      -0.01356208      -0.00113540       0.01054974 
O       2.39526692       1.91718243      10.44512337      -0.02142506       0.00371416       0.01402890 
O       0.96565507       1.91092896      13.07538034      -0.00569495       0.00097042      -0.00458142 
O       6.10773522       0.00152559      13.07043671      -0.01062018      -0.00058047      -0.00394865 
Ti       4.20114383       0.01867480      14.02728905       0.00607006       0.00255613      -0.00437088 
Ti       9.43163313       1.85094078      14.01355465      -0.02087049       0.00077220       0.00324736 
Ti       1.87799573       1.92822053      14.60361099       0.00082506       0.00263302       0.01214551 
Ti       7.00532585      11.46275398      14.60002415      -0.00542683      -0.00315035       0.00687953 
O       2.39420201      11.46023242      14.81089755      -0.00380732       0.00055166       0.00298260 
O       7.57715622       1.84885446      14.78531625       0.01661861      -0.00033293      -0.00667621 
O       0.23883878       1.88345293      15.44611446       0.01422579      -0.00513887       0.00631940 
O       5.39313066      11.46652760      15.44899742       0.01068351       0.00097829       0.00436775 
O       9.06214114      11.46354309      13.93944109      -0.00045568      -0.00170603       0.00498918 
O       3.84594083       1.90745208      13.96407512      -0.01277467       0.00731604      -0.00234456 
O       8.47657182       5.73351750       6.00000000      -1.86509212      -0.00050979       1.58019122 
O       3.30569868       3.82234500       6.00000000      -1.84130117       0.00636038       1.62393887 
Ti       1.41275186       3.82234500       6.75295684       3.68967054      -0.05746070       1.81899356 
Ti       6.58362500       5.73351750       6.75295684       3.84306641      -0.00202746       1.94365862 
Ti       9.52224953       5.73351750       7.64087763      -1.94876321      -0.00161190      -2.07916280 
Ti       4.35137640       3.82234500       7.64087763      -1.66375934      -0.03762700      -1.78002175 
O       9.86155132       3.82234500       7.50591367       0.96220278       0.01599067      -0.20945311 
O       4.69067818       5.73351750       7.50591367       0.85751194       0.00318883      -0.16410402 
O       7.62930272       5.73351750       8.39383447      -0.82915150      -0.00123596      -0.59958985 
O       2.45842958       3.82234500       8.39383447      -0.79115293       0.00548772      -0.53346518 
O       6.24432321       3.82234500       6.88792080      -0.27735723       0.02573297      -0.67897602 
O       1.07345007       5.73351750       6.88792080      -0.17882590       0.00358089      -0.72397409 
O       9.80064896       5.73172760       9.58059267      -0.00537828       0.00025082       0.00329205 
O       4.64725703       3.82509995       9.61884283      -0.00590432      -0.00107511      -0.00122792 
Ti       2.79163704       3.81577004      10.34088567       0.00439311      -0.00352112       0.00599123 
Ti       7.92988682       5.73179121      10.38267076       0.00849195      -0.00157919       0.00394982 
Ti       0.51380907       5.73181426      11.10948402      -0.01365734      -0.00012953      -0.00869436 
Ti       5.69075813       3.81277664      11.23130651      -0.00513185      -0.00367209       0.00579766 
O       0.90629541       3.82060393      11.07430563       0.00741039       0.00140870      -0.00556986 
O       6.07984015       5.73261469      11.11865479       0.01110793       0.00006648      -0.01103858 
O       9.04586558       5.73222516      11.94356822      -0.00281132      -0.00118259      -0.00655707 
O       3.84782741       3.82124296      11.96997947       0.00009694      -0.00092924      -0.01012215 
O       7.54602117       3.82378975      10.46179953      -0.01886944       0.00086818       0.00677951 
O       2.39381334       5.73116083      10.44252052      -0.01925151       0.00024320       0.01515806 
O       0.95813491       5.72984138      13.05882055      -0.01008853       0.00030561      -0.00938612 
O       6.03983855       3.77700774      13.23183200      -0.00482189       0.00061112      -0.00780633 
Ti       4.21876850       3.85068866      13.90851510       0.00035797      -0.00010839      -0.01051211 
Ti       9.38798934       5.73306311      13.96072718      -0.02177081      -0.00412968       0.00709105 
Ti       1.83991441       5.72851560      14.60305188       0.00398059       0.00260662       0.01024414 
Ti       7.24265608       3.78456590      14.80304462       0.00194065      -0.00534318       0.00782770 
O       2.36423301       3.82081120      14.80649066       0.00491817      -0.00195052       0.00042328 
O       7.54651984       5.73268000      14.59769763       0.02150516      -0.00408963      -0.00563224 
O       0.20336415       5.72918430      15.42031280       0.00834609      -0.00184573       0.01571826 
O       5.20193605       3.83774460      15.61753230      -0.02231174       0.00502046      -0.01048132 
O       8.99727596       3.79546350      13.97927145      -0.01309791      -0.00095708       0.00082761 
O       3.84221866       5.72294370      13.95862088      -0.00274355       0.00159669       0.00569924 
O       8.47657182       9.55586250       6.00000000      -1.85676338      -0.00742054       1.57413846 
O       3.30569868       7.64469000       6.00000000      -1.84276945      -0.00687321       1.62519509 
Ti       1.41275186       7.64469000       6.75295684       3.68275507       0.05339546       1.81126739 
Ti       6.58362500       9.55586250       6.75295684       3.84844103       0.03005244       1.96362125 
Ti       9.52224953       9.55586250       7.64087763      -1.95483054       0.03721477      -2.11156888 
Ti       4.35137640       7.64469000       7.64087763      -1.65281693       0.03756292      -1.77832773 
O       9.86155132       7.64469000       7.50591367       0.96373774      -0.02011433      -0.20933562 
O       4.69067818       9.55586250       7.50591367       0.87597193      -0.08241370      -0.17624495 
O       7.62930272       9.55586250       8.39383447      -0.79900946      -0.01975694      -0.50086990 
O       2.45842958       7.64469000       8.39383447      -0.79325612      -0.01686103      -0.53264406 
O       6.24432321       7.64469000       6.88792080      -0.27845390      -0.02411209      -0.67819682 
O       1.07345007       9.55586250       6.88792080      -0.19058854      -0.08957906      -0.73148905 
O       9.80829574       9.55351511       9.58006160      -0.00474772       0.00026352       0.00468072 
O       4.64685501       7.64275780       9.61918524      -0.00549362      -0.00110641       0.00061905 
Ti       2.79201264       7.64609932      10.33890854       0.00317454       0.00282755       0.00409018 
Ti       7.93537565       9.56229645      10.38713314       0.00601492       0.00437137       0.00347003 
Ti       0.49575565       9.53529584      11.12052958      -0.01186366      -0.00087781      -0.01073482 
Ti       5.69521564       7.64641985      11.23082771      -0.00671838       0.00064537       0.00378491 
O       0.90592641       7.64155016      11.07409452       0.00759383      -0.00111039      -0.00532967 
O       6.07795256       9.55130617      11.09221902       0.01113554      -0.00319315      -0.01227276 
O       9.04637462       9.55110499      11.94253418      -0.00009872      -0.00374364      -0.00945933 
O       3.84709751       7.62977697      11.97039769       0.00083811       0.00136382      -0.00698803 
O       7.54524754       7.64107263      10.46182859      -0.01895083      -0.00168693       0.00743014 
O       2.39550494       9.54438055      10.44528304      -0.02149701      -0.00393732       0.01413037 
O       0.96631194       9.54721468      13.07586678      -0.00601315       0.00110259      -0.00393129 
O       6.03980550       7.70007424      13.23010350      -0.00347182      -0.00335853      -0.00674158 
Ti       4.21871074       7.65601859      13.90011659      -0.00018420       0.01386409      -0.00504218 
Ti       9.42932864       9.60798369      14.01329666      -0.02095610      -0.00460619       0.00262365 
Ti       1.87568863       9.52675000      14.60557049       0.00041156      -0.00002709       0.01304319 
Ti       7.23927569       7.67099309      14.81055375      -0.00006489       0.00396564      -0.00388606 
O       2.36486163       7.63398012      14.80609857       0.00471877       0.00589263      -0.00058541 
O       7.57631149       9.61143774      14.78513014       0.01460664      -0.00218760      -0.00498753 
O       0.23753907       9.56883821      15.44663572       0.01532323       0.00025023       0.00583947 
O       5.20461635       7.57821107      15.61141234      -0.02133624      -0.00545399       0.00050655 
O       8.99768827       7.66532500      13.98055937      -0.01238963      -0.00234860       0.00046357 
O       3.84835292       9.54021437      13.96651946      -0.01238428      -0.00459061      -0.00378451 
V       5.88007716       4.05992059      17.26449941      -0.03211132      -0.01701292       0.02495427 
V       5.87249547       7.37822840      17.26514569      -0.01025157      -0.01752200      -0.00120572 
O       5.55972476       5.71919650      17.87920326       0.00230325      -0.00469462       0.00619332 
O       7.53070105       3.85715790      16.68990172      -0.02028521      -0.01333000       0.01249838 
O       7.52278841       7.61339517      16.69609100      -0.00185970      -0.01483246       0.00383105 
O       5.41446966       2.92143427      18.28615726      -0.02987790       0.00355458      -0.02041734 
O       5.38478513       8.50651556      18.28556486       0.01462765       0.00885716       0.00055598 
