121
Lattice="10.341746277552646 0.0 0.0 -2.619435405085487e-16 11.467 0.0 0.0 0.0 23.497200848665354" Properties=species:S:1:pos:R:3:forces:R:3 energy=-871.7100560706239 dipole="-13.194664436823086 2.047570726132983 -1.1846618898060521" pbc="T T F"
O       8.47657182       1.91117250       6.00000000      -1.85418306       0.00838483       1.57151967 
O       3.30569868       0.00000000       6.00000000      -1.87749873       0.00854775       1.56545036 
Ti       1.41275186       0.00000000       6.75295684       3.81876148      -0.07404144       1.95918100 
Ti       6.58362500       1.91117250       6.75295684       3.82510199      -0.05343192       1.92812712 
Ti       9.52224953       1.91117250       7.64087763      -1.85180756      -0.04535575      -1.82627053 
Ti       4.35137640       0.00000000       7.64087763      -1.89795239      -0.04738993      -2.10357740 
O       9.86155132       0.00000000       7.50591367       0.91647520       0.05301278      -0.20322282 
O       4.69067818       1.91117250       7.50591367       0.88882726       0.09063915      -0.20288796 
O       7.62930272       1.91117250       8.39383447      -0.80256204       0.00290430      -0.55463636 
O       2.45842958       0.00000000       8.39383447      -0.83638020       0.00917461      -0.54696191 
O       6.24432321       0.00000000       6.88792080      -0.22345009       0.04876404      -0.73511465 
O       1.07345007       1.91117250       6.88792080      -0.19267492       0.11717892      -0.70116619 
O       9.81451021       1.91755447       9.59958201      -0.00241217       0.00108738       0.00643968 
O       4.63173994       0.00782765       9.57816189       0.00696996      -0.00094760       0.01580530 
Ti       2.74872462       0.00860638      10.38179072      -0.00941544       0.00469652      -0.00244268 
Ti       7.96149125       1.89349903      10.36793143       0.00795845       0.00042483      -0.00417452 
Ti       0.50098046       1.91188008      11.20065896       0.00150337      -0.00235613       0.00076640 
Ti       5.66513679      -0.00822306      11.11007237       0.00732954      -0.00267997       0.00374097 
O       0.90494965       0.00232885      11.08432460      -0.00006136       0.00006763      -0.00572322 
O       6.08128395       1.91511196      11.09063111      -0.00538281       0.00034594      -0.00203698 
O       9.03645265       1.89887757      11.95673709      -0.01518289      -0.00087634       0.00518311 
O       3.86095832      11.45059158      11.93887869      -0.00314407      -0.00001723       0.00292092 
O       7.55584307       0.00246850      10.44649757       0.00573508       0.00593916      -0.00101238 
O       2.37924131       1.91707489      10.45065261       0.00591734      -0.00702610       0.00174251 
O       0.92625722       1.86656776      13.15618140      -0.00271046      -0.00654954       0.01131185 
O       6.10528546      11.46664927      13.05974263      -0.00803128      -0.00837197      -0.00869790 
Ti       4.18498457       0.08203255      13.96746654      -0.00898894      -0.00758182       0.00329132 
Ti       9.42246444       1.83108437      13.99068903      -0.01144997       0.00694689      -0.01041471 
Ti       1.86917241       1.89334648      14.79668317      -0.01283220       0.00710067       0.00511058 
Ti       7.01499738      11.44349793      14.57366051       0.00671372       0.00033880       0.00146653 
O       2.38309285      11.44526625      14.80321892      -0.01283341      -0.01420284       0.00772589 
O       7.54328175       1.84569894      14.81678439       0.00783338      -0.00227746       0.00021230 
O       0.18442191       1.91358138      15.49613290      -0.00309029      -0.00668397       0.00227400 
O       5.40152488      -0.01990522      15.45286763      -0.00225121      -0.00339853       0.00629009 
O       9.03124682      11.44811839      13.95635287       0.00149672       0.00103103      -0.00170359 
O       3.84886220       1.87908026      13.92526781      -0.00719674       0.01279856       0.00204654 
O       8.47657182       5.73351750       6.00000000      -1.88891600      -0.00506781       1.54334440 
O       3.30569868       3.82234500       6.00000000      -1.88766386      -0.00304508       1.63348122 
Ti       1.41275186       3.82234500       6.75295684       3.55879817       0.01308906       1.71465052 
Ti       6.58362500       5.73351750       6.75295684       3.84120924       0.04493422       1.89377808 
Ti       9.52224953       5.73351750       7.64087763      -1.77418287       0.06310572      -1.67123644 
Ti       4.35137640       3.82234500       7.64087763      -1.55855043      -0.00316397      -1.92468674 
O       9.86155132       3.82234500       7.50591367       0.97525827      -0.00870424      -0.22333700 
O       4.69067818       5.73351750       7.50591367       0.88574469      -0.08304216      -0.18919153 
O       7.62930272       5.73351750       8.39383447      -0.93512807      -0.04402023      -0.71706901 
O       2.45842958       3.82234500       8.39383447      -0.82398277       0.00345533      -0.57760395 
O       6.24432321       3.82234500       6.88792080      -0.27795582       0.00424302      -0.67985773 
O       1.07345007       5.73351750       6.88792080      -0.18684420      -0.12561896      -0.70920128 
O       9.79639747       5.74164882       9.60213380       0.00683079       0.00156739       0.00667333 
O       4.63824808       3.82039881       9.60162962       0.01087855      -0.00084885       0.00864139 
Ti       2.73414451       3.83242887      10.32341856      -0.00681208       0.01159819      -0.00518150 
Ti       7.99538451       5.73641029      10.34392012       0.00158029      -0.00358900      -0.00502629 
Ti       0.52667046       5.73757913      11.26060690       0.01189760       0.00406610       0.01333937 
Ti       5.71419002       3.81481774      11.14166540       0.00547214      -0.00350930       0.00925945 
O       0.90692015       3.82367025      11.10104694      -0.00748577       0.00199058       0.00536110 
O       6.06380446       5.72429294      11.09135799      -0.00598425      -0.00199786      -0.00197186 
O       9.01407960       5.69502443      11.95443315      -0.00613193      -0.00139905      -0.00911397 
O       3.84430017       3.82224162      11.94287858      -0.00538983      -0.00296144       0.01756686 
O       7.54809660       3.81829542      10.45252969       0.00114742      -0.00178916      -0.00004070 
O       2.37424354       5.72799789      10.45345768       0.00417300       0.00564288      -0.00124402 
O       0.87961320       5.84180998      13.13850486      -0.00588515       0.00256423      -0.01070723 
O       6.05476663       3.84126374      13.20083897      -0.01230955       0.00050141       0.01566383 
Ti       4.09823512       3.92007820      13.80107389      -0.00821373      -0.00997980       0.00820227 
Ti       9.42002693       5.76921009      13.93697407      -0.00429151       0.00589596      -0.00284081 
Ti       1.85698067       5.69896177      14.94705476      -0.01616623      -0.01122565       0.01147149 
Ti       7.15490791       3.81740535      14.66039302      -0.01844739      -0.01658062       0.00641222 
O       2.30756009       3.83787739      14.58280171      -0.01700388      -0.00675752       0.01201141 
O       7.51118124       5.74457333      14.80451912      -0.00629229      -0.01423040       0.01578957 
O       0.09967947       5.55198202      15.46742480      -0.01086746       0.03434321       0.00927103 
O       5.22007704       3.63118871      15.62200990      -0.00562449      -0.00260752      -0.01510131 
O       8.87928439       3.78646817      13.94380023       0.01886285       0.01025255       0.00132244 
O       3.86628349       5.73094184      13.96945296      -0.00282706      -0.01994836       0.01173356 
O       8.47657182       9.55586250       6.00000000      -1.87054751       0.00337008       1.56189384 
O       3.30569868       7.64469000       6.00000000      -1.86476928      -0.00855168       1.56797152 
Ti       1.41275186       7.64469000       6.75295684       3.80594044       0.06381318       1.96619724 
Ti       6.58362500       9.55586250       6.75295684       3.85313466      -0.00340581       1.97507441 
Ti       9.52224953       9.55586250       7.64087763      -1.93616720      -0.01139062      -2.07481635 
Ti       4.35137640       7.64469000       7.64087763      -1.90529873       0.04931652      -2.07099406 
O       9.86155132       7.64469000       7.50591367       0.92280706      -0.01155012      -0.21683508 
O       4.69067818       9.55586250       7.50591367       0.89735569       0.00248201      -0.18201146 
O       7.62930272       9.55586250       8.39383447      -0.83208331      -0.01855021      -0.55690761 
O       2.45842958       7.64469000       8.39383447      -0.83782024      -0.01779247      -0.55191434 
O       6.24432321       7.64469000       6.88792080      -0.22028058      -0.05129656      -0.72817555 
O       1.07345007       9.55586250       6.88792080      -0.19738357       0.00243964      -0.74241065 
O       9.80391751       9.56178695       9.57936998       0.00081292      -0.00097997       0.00772327 
O       4.62771826       7.64275670       9.58216619       0.00736047       0.00023790       0.01179718 
Ti       2.74855137       7.66104525      10.38096731      -0.00327020      -0.00135962      -0.00867420 
Ti       7.91598018       9.54082086      10.39002134      -0.00618796      -0.00151586       0.00146412 
Ti       0.47257919       9.55388406      11.12334628       0.00462734       0.00325160      -0.00414025 
Ti       5.65950922       7.59551866      11.11929836       0.01099821       0.00218114       0.00687857 
O       0.90272148       7.65353947      11.07572951      -0.00434988      -0.00120607      -0.00485126 
O       6.08032122       9.55276867      11.07271232      -0.00630215      -0.00361923      -0.00699279 
O       9.02613734       9.54110739      11.94528961       0.00072261      -0.00182864       0.00305362 
O       3.85793483       7.63117949      11.94884433       0.00112770      -0.00272357      -0.00016302 
O       7.55391631       7.62950969      10.44853735       0.00712036      -0.00720396      -0.00478423 
O       2.37914309       9.55605946      10.44758778       0.01240839       0.00055652      -0.00516635 
O       0.92399285       9.55765250      13.07641523       0.00270813       0.00139979      -0.00132854 
O       6.10485317       7.66884509      13.06895453      -0.00491858      -0.00774798      -0.01036060 
Ti       4.16797608       7.70846842      13.98463410       0.01907414       0.00300499       0.00333701 
Ti       9.39503893       9.53333791      14.03016345       0.00594690      -0.01201681       0.01076506 
Ti       1.85286339       9.54736106      14.59142780      -0.00088354       0.00822888      -0.00864050 
Ti       7.00457086       7.62930004      14.58718980      -0.00748813       0.00291619      -0.00231240 
O       2.37346280       7.67524230      14.78587047      -0.00621707      -0.00744752       0.02241111 
O       7.56297692       9.54157426      14.80893327       0.00611075       0.00105604      -0.00050032 
O       0.22398026       9.55555293      15.45410447      -0.00721577      -0.00845171      -0.00620767 
O       5.39274540       7.64971025      15.46125394      -0.01352841       0.01182219       0.00457635 
O       9.02279946       7.62994435      13.96947850      -0.00580886       0.00127521      -0.00783240 
O       3.84187700       9.54454322      13.94851943       0.00171332      -0.00741738       0.00633874 
V       3.52198002       5.71618002      18.13762245      -0.02485189       0.01713222       0.03112779 
V       4.49971625       2.83736041      17.03803246      -0.01213074      -0.01283415       0.00356851 
O       4.29848276       4.03781607      18.27670389       0.00673435      -0.01873903       0.00153119 
O       5.59236108       1.57998075      17.62255559       0.02223699      -0.02100983       0.00332172 
O       2.58542229       5.95592596      19.40122716      -0.00272771       0.03260257      -0.01067588 
O       4.72832072       7.01494256      18.06267276       0.01124424       0.00470601      -0.01698732 
O       2.57355816       5.69966512      16.67742585      -0.00496623       0.00798123      -0.01082666 
O       3.05065069       2.15618831      16.55294255      -0.01234133       0.00172119       0.01429652 
O       7.97619277       3.84004652      16.74993600      -0.00096431       0.00762138       0.00747645 
H       5.03896450       7.22040827      17.12071196      -0.00534305      -0.00853327       0.00559651 
H       5.49523408       0.77486668      17.01101748      -0.01681213      -0.01534564      -0.00711642 
H       8.31403534       2.94897258      17.01069022      -0.00160208      -0.00056769      -0.00157196 
H       8.77674741       4.42861904      16.75937107       0.00784791      -0.01458409      -0.00819201 
