121
Lattice="10.341746277552646 0.0 0.0 -2.619435405085487e-16 11.467 0.0 0.0 0.0 23.497200848665354" Properties=species:S:1:pos:R:3:forces:R:3 energy=-871.6016282425031 dipole="-12.296530922176338 -4.387795551211397 -0.33888093621534765" pbc="T T F"
O       8.47657182       1.91117250       6.00000000      -1.86284854      -0.00076205       1.52282492 
O       3.30569868       0.00000000       6.00000000      -1.88674803      -0.01088960       1.52511417 
Ti       1.41275186       0.00000000       6.75295684       3.83956943       0.07632372       2.00862048 
Ti       6.58362500       1.91117250       6.75295684       3.86105704      -0.00754915       2.04491277 
Ti       9.52224953       1.91117250       7.64087763      -1.96706064      -0.00711489      -2.05666314 
Ti       4.35137640       0.00000000       7.64087763      -1.88836211       0.05762782      -2.04004426 
O       9.86155132       0.00000000       7.50591367       0.92157191      -0.04378569      -0.21492037 
O       4.69067818       1.91117250       7.50591367       0.89071586       0.00538136      -0.21100171 
O       7.62930272       1.91117250       8.39383447      -0.81827300       0.01915594      -0.58259237 
O       2.45842958       0.00000000       8.39383447      -0.82246265       0.00607317      -0.57198249 
O       6.24432321       0.00000000       6.88792080      -0.21818358      -0.04802064      -0.74971463 
O       1.07345007       1.91117250       6.88792080      -0.19217157       0.01967860      -0.75489511 
O       9.80638589       1.91046777       9.57713278       0.00883052       0.00195010       0.00358800 
O       4.63960510      11.46637117       9.57783881       0.00279873       0.00204761      -0.00755395 
Ti       2.75052430       0.01657063      10.38592987      -0.00414050       0.00458361      -0.00846435 
Ti       7.92995959       1.91397334      10.39314476      -0.00832092       0.00600535       0.00251780 
Ti       0.48356758       1.93824816      11.12034588       0.00602723       0.00350946       0.00400292 
Ti       5.64937610      11.48016659      11.12456823       0.01823153      -0.00064937       0.00833077 
O       0.91203252      11.46884372      11.08242401       0.00786521       0.00135352       0.00388974 
O       6.08148331       1.91322014      11.07904186       0.00631150       0.00598001      -0.00741444 
O       9.03606410       1.91581372      11.94002992       0.00937842      -0.00308094       0.00708145 
O       3.86833971       0.01473697      11.94108344      -0.01169438      -0.00532020       0.01138442 
O       7.56185489      11.46783234      10.44759606      -0.01247131      -0.01516303      -0.00860851 
O       2.38900409       1.92000698      10.44601217      -0.00459111      -0.00240202       0.00347002 
O       0.94656954       1.91172890      13.06928839      -0.01267001      -0.00485723       0.00457617 
O       6.12154520       0.00416800      13.07349603      -0.00802331       0.00374651      -0.00253607 
Ti       4.21158365      11.41220923      14.00620506       0.00273823       0.00487960      -0.00122526 
Ti       9.41080430       1.90957639      14.03821943      -0.00164648       0.00694349       0.00332711 
Ti       1.87738019       1.93216713      14.57895689       0.00334653      -0.00041109      -0.01441562 
Ti       7.01030275      11.48789751      14.60400831       0.00297908       0.00334488       0.00189994 
O       2.39534345       0.02160335      14.82417726      -0.00815981      -0.01113178      -0.01461352 
O       7.56687630       1.91497999      14.82472640      -0.00078796       0.00598278      -0.00818604 
O       0.24554483       1.90851551      15.45242284      -0.01275399      -0.00500413       0.00185047 
O       5.39637895      11.46038500      15.45347819       0.00457823       0.00753541       0.00524473 
O       9.02968612      11.48164212      13.95279629      -0.00736116       0.00822021      -0.00089088 
O       3.84128678       1.91811854      13.95705489      -0.00432044      -0.00809810      -0.00556454 
O       8.47657182       5.73351750       6.00000000      -1.90223303       0.01015397       1.53740539 
O       3.30569868       3.82234500       6.00000000      -1.88847643       0.01211845       1.51538565 
Ti       1.41275186       3.82234500       6.75295684       3.83476676      -0.08789033       1.96692260 
Ti       6.58362500       5.73351750       6.75295684       3.76641124      -0.05831772       1.90760891 
Ti       9.52224953       5.73351750       7.64087763      -1.77950439      -0.05080233      -1.85854255 
Ti       4.35137640       3.82234500       7.64087763      -1.76109383      -0.06615060      -1.69699655 
O       9.86155132       3.82234500       7.50591367       0.92580000       0.04738654      -0.21403605 
O       4.69067818       5.73351750       7.50591367       0.89270661       0.09441126      -0.21930450 
O       7.62930272       5.73351750       8.39383447      -0.83116826       0.02788314      -0.51427588 
O       2.45842958       3.82234500       8.39383447      -0.86514111       0.01387631      -0.69749537 
O       6.24432321       3.82234500       6.88792080      -0.21935924       0.08167882      -0.72223011 
O       1.07345007       5.73351750       6.88792080      -0.18764093       0.12208819      -0.73321218 
O       9.80969744       5.73865008       9.58657147       0.00673128      -0.00029988       0.00057954 
O       4.64069739       3.82568305       9.59964425      -0.00108861       0.00345662       0.00144920 
Ti       2.82081502       3.81956085      10.35354314      -0.00717651       0.00565667      -0.00370467 
Ti       7.95343604       5.70873206      10.35539460      -0.00431972      -0.00123213      -0.00893710 
Ti       0.54715855       5.71512589      11.15167341       0.00781598       0.00178676      -0.00496601 
Ti       5.68000302       3.84070285      11.24552932       0.00849792       0.00490464      -0.02804392 
O       0.89913017       3.82247330      11.07887087      -0.00487458      -0.00330503      -0.00818575 
O       6.08330698       5.73868891      11.10778081      -0.01238880      -0.00961169       0.00612774 
O       9.06279101       5.74124596      11.93760455       0.00058505      -0.00101174       0.01488986 
O       3.86162029       3.83301749      11.95204011      -0.00051272      -0.00136862      -0.01618933 
O       7.56170488       3.83586641      10.45426749      -0.01061041      -0.00672394       0.00279528 
O       2.39108744       5.73425682      10.44121072       0.01046877      -0.00096146       0.00590014 
O       1.00434288       5.72426345      13.08905475      -0.01276568      -0.01186922      -0.02312666 
O       6.08973235       3.75154085      13.14820053      -0.00219111       0.00835751      -0.02424456 
Ti       4.25490247       3.78165332      13.98238856       0.00112347      -0.00827867       0.00779259 
Ti       9.37305916       5.62013913      13.88291220       0.02181760      -0.02135277       0.01378920 
Ti       1.84817060       5.70002384      14.71410749      -0.00547383      -0.00893899      -0.00890426 
Ti       7.03476361       3.83684019      14.84068921      -0.00425320      -0.00727293      -0.00653631 
O       2.37603726       3.80892943      14.81866945       0.00171517       0.00335480      -0.00691332 
O       7.51973418       5.71142158      14.38349466       0.00494575       0.00785803      -0.01786386 
O       0.18035174       5.73113767      15.44525328       0.00309971      -0.00575328      -0.00509860 
O       5.34375676       3.81852514      15.48609827       0.00593348       0.00688112       0.00263007 
O       9.07302123       3.79496357      13.95102884      -0.00735584       0.00467061       0.01230569 
O       3.85350264       5.73256640      13.93968228       0.02487829      -0.00782293       0.00199418 
O       8.47657182       9.55586250       6.00000000      -1.85847066      -0.01094296       1.53270393 
O       3.30569868       7.64469000       6.00000000      -1.90422903       0.00116910       1.59379848 
Ti       1.41275186       7.64469000       6.75295684       3.55846657       0.01716100       1.71967970 
Ti       6.58362500       9.55586250       6.75295684       3.84246638       0.06874656       1.99432196 
Ti       9.52224953       9.55586250       7.64087763      -1.90678542       0.05798197      -1.90027787 
Ti       4.35137640       7.64469000       7.64087763      -1.49294157      -0.00055303      -1.83013243 
O       9.86155132       7.64469000       7.50591367       0.98109338       0.00475931      -0.23564043 
O       4.69067818       9.55586250       7.50591367       0.88123701      -0.09226887      -0.21166867 
O       7.62930272       9.55586250       8.39383447      -0.78540466      -0.01363500      -0.54806917 
O       2.45842958       7.64469000       8.39383447      -0.78455721       0.00742319      -0.53777244 
O       6.24432321       7.64469000       6.88792080      -0.27469246      -0.02932426      -0.69823283 
O       1.07345007       9.55586250       6.88792080      -0.18245247      -0.13980937      -0.72672146 
O       9.81751732       9.55602123       9.58982145      -0.00316472       0.00113830       0.00147970 
O       4.66076798       7.64879815       9.60146862      -0.00459557       0.00566912       0.00033656 
Ti       2.73529312       7.66837365      10.31741959      -0.01605624      -0.00722890      -0.00791793 
Ti       7.95710180       9.58455009      10.37855984       0.00249403      -0.01128331      -0.00560274 
Ti       0.49808529       9.56094615      11.17110684      -0.00035954      -0.00857399       0.01057268 
Ti       5.72410298       7.66159464      11.15209145       0.02658462      -0.00491810      -0.01025890 
O       0.91725191       7.65470610      11.07857986       0.00488458      -0.00435249       0.00758144 
O       6.08209726       9.55999459      11.09089935       0.00292074       0.00098013      -0.00194241 
O       9.04640394       9.57173051      11.94775851      -0.00501035       0.00178381       0.00188552 
O       3.82578161       7.65091448      11.92626505       0.01193557      -0.00288547      -0.00240192 
O       7.54680276       7.64724704      10.46240228       0.00834517       0.01511319      -0.00631618 
O       2.39129625       9.55902267      10.44373561       0.00085498      -0.00283929       0.01504103 
O       0.96557545       9.56153617      13.13292079      -0.01582446       0.01215187       0.00034113 
O       6.01301843       7.69754438      13.23880549       0.01223257       0.00658769       0.00233736 
Ti       4.14352390       7.57802549      13.76023050      -0.01026092      -0.00983789      -0.01246614 
Ti       9.44548777       9.64068218      14.01141763       0.01035859       0.00397372      -0.00631536 
Ti       1.88326574       9.58327625      14.73152366       0.00122984       0.01408743      -0.01427712 
Ti       7.27687711       7.67402453      14.67540286      -0.00697219       0.00283410      -0.00750009 
O       2.39100871       7.64898480      14.78783948      -0.02098424      -0.00142793       0.00601787 
O       7.55215450       9.59809482      14.81012465      -0.01344656       0.01215045       0.00990813 
O       0.20560031       9.61721422      15.47706037      -0.00844329       0.00917630       0.00519431 
O       5.04849924       7.65001515      15.66074054      -0.04132827       0.00077117      -0.00640596 
O       8.98110184       7.69021405      13.95586340      -0.00641712       0.01564884       0.03252083 
O       3.83788051       9.57617277      13.94327374       0.02484649       0.02093805       0.00169343 
V       7.96648431       5.88465665      17.57324849      -0.00214291      -0.01234216       0.01594475 
V       3.79258841       7.64089790      16.83378035      -0.04052598       0.01121637       0.01975332 
O       2.81803498       9.24034761      16.75276005       0.01916058      -0.00159673       0.01230593 
O       4.52718348       7.59905676      18.26019165      -0.02655511       0.01157622      -0.00077634 
O       9.66648555       5.94359888      18.05754578       0.00631407      -0.01338125       0.01072431 
O       7.64841272       7.20114777      16.53277465      -0.00685044      -0.01948244       0.03412265 
O       2.81631562       6.03943982      16.74360337      -0.01106372      -0.03343993      -0.01841260 
O       7.72550003       4.45923258      16.69034292       0.01280445       0.01669285      -0.01032672 
O       6.85790555       5.96892111      18.95002461      -0.01729970       0.03888329      -0.01529927 
H       2.96990991       9.94197512      17.42678364       0.01109253      -0.01309163       0.00257029 
H      10.21041133       5.85128273      17.20646313      -0.01379882       0.00013033       0.00680997 
H       6.08705125       6.60203769      18.88107568       0.02220699      -0.03351282       0.00272762 
H       3.05394938       5.31365064      17.36635228      -0.00568554       0.01416170       0.00389261 
