121
Lattice="10.341746277552646 0.0 0.0 -2.619435405085487e-16 11.467 0.0 0.0 0.0 23.497200848665354" Properties=species:S:1:pos:R:3:forces:R:3 energy=-871.6715944383675 dipole="-12.794935875389502 2.098155510880331 -1.2039214111561893" pbc="T T F"
O       8.47657182       1.91117250       6.00000000      -1.85227470       0.00952282       1.57231643 
O       3.30569868       0.00000000       6.00000000      -1.87588525       0.00887151       1.56564154 
Ti       1.41275186       0.00000000       6.75295684       3.81917471      -0.07511582       1.96107161 
Ti       6.58362500       1.91117250       6.75295684       3.82438669      -0.05996471       1.93138835 
Ti       9.52224953       1.91117250       7.64087763      -1.85656871      -0.04698299      -1.81559072 
Ti       4.35137640       0.00000000       7.64087763      -1.89873590      -0.05306915      -2.08203827 
O       9.86155132       0.00000000       7.50591367       0.91803451       0.05842314      -0.20360446 
O       4.69067818       1.91117250       7.50591367       0.88980483       0.09610275      -0.20171716 
O       7.62930272       1.91117250       8.39383447      -0.81361034       0.00335805      -0.56736687 
O       2.45842958       0.00000000       8.39383447      -0.84227998       0.01053289      -0.55515433 
O       6.24432321       0.00000000       6.88792080      -0.22250610       0.04860927      -0.73515317 
O       1.07345007       1.91117250       6.88792080      -0.19319648       0.11840822      -0.70103046 
O       9.81103416       1.91953247       9.60091876       0.00001223      -0.00022467       0.00279131 
O       4.63005008       0.00913351       9.57940374      -0.00586174       0.00208237       0.00533595 
Ti       2.74541538       0.02930695      10.38152200       0.01286505      -0.00489235       0.01538222 
Ti       7.95596415       1.89399326      10.36838024      -0.00043216      -0.00876696      -0.00460843 
Ti       0.49798609       1.91256787      11.19995431       0.00888413       0.00544415      -0.00660073 
Ti       5.66276797      -0.01695167      11.11141192       0.00449731      -0.00131800       0.00270968 
O       0.90173986       0.00277455      11.08352579      -0.00017996       0.00117059      -0.00129026 
O       6.07794302       1.91515280      11.09190634       0.00157448      -0.00598077       0.00234710 
O       9.02956309       1.89935427      11.95843548       0.00269353      -0.00437082      -0.00726257 
O       3.85671095      11.45145454      11.94184726      -0.00148587      -0.00277619      -0.02410495 
O       7.55281566       0.00140731      10.44658916       0.00126366      -0.00121142       0.00325592 
O       2.37538368       1.91606215      10.45226725      -0.00343916       0.00783375      -0.00669633 
O       0.91618550       1.86388128      13.15439688       0.00145188       0.00072280      -0.00605117 
O       6.09659901      11.46271271      13.06078336      -0.00405353      -0.00324892       0.00799054 
Ti       4.17647916       0.08432414      13.96884058      -0.01240765       0.00020574       0.00128534 
Ti       9.40445493       1.82779214      13.98729754      -0.00249475       0.00001809       0.00010709 
Ti       1.84890402       1.89361135      14.79248014       0.00509759      -0.00016052       0.01446714 
Ti       7.00663007      11.43955141      14.57500585       0.00839978      -0.00345005       0.00328841 
O       2.37677970      11.44205101      14.80073776      -0.00483968      -0.00634435       0.01453015 
O       7.53814100       1.84150602      14.81740107       0.00023769       0.00132230      -0.00822921 
O       0.16979489       1.91270026      15.49500847      -0.00560888      -0.00982677      -0.00184435 
O       5.39602684      -0.01764166      15.45562764       0.00336962       0.00106153      -0.00343822 
O       9.02608197      11.44499407      13.95534006       0.00555043      -0.00650721      -0.00020879 
O       3.84037006       1.88284714      13.92639143      -0.01147511       0.00596884       0.01100044 
O       8.47657182       5.73351750       6.00000000      -1.89466019      -0.00507197       1.54137792 
O       3.30569868       3.82234500       6.00000000      -1.87912106      -0.00271343       1.63881077 
Ti       1.41275186       3.82234500       6.75295684       3.55367899       0.01591697       1.71654254 
Ti       6.58362500       5.73351750       6.75295684       3.83210641       0.04477862       1.87564421 
Ti       9.52224953       5.73351750       7.64087763      -1.73949403       0.06894627      -1.62843267 
Ti       4.35137640       3.82234500       7.64087763      -1.56492102      -0.01246204      -1.88732190 
O       9.86155132       3.82234500       7.50591367       0.97661394      -0.00858348      -0.22693548 
O       4.69067818       5.73351750       7.50591367       0.88990849      -0.08775011      -0.18858369 
O       7.62930272       5.73351750       8.39383447      -0.96052244      -0.05229341      -0.73169586 
O       2.45842958       3.82234500       8.39383447      -0.83785438       0.00259018      -0.59149389 
O       6.24432321       3.82234500       6.88792080      -0.28105390       0.01185026      -0.67292090 
O       1.07345007       5.73351750       6.88792080      -0.19213399      -0.12922905      -0.70413817 
O       9.79316201       5.74164885       9.60399889       0.00603374       0.00033443       0.00637148 
O       4.63400716       3.82090726       9.60553737       0.00346717       0.00202455      -0.00128546 
Ti       2.72701239       3.85734269      10.32293896       0.01245050      -0.00565826       0.00512660 
Ti       8.00217390       5.72943465      10.33652184      -0.00959763       0.00206573       0.01098665 
Ti       0.52700776       5.74215884      11.28501571      -0.00254149      -0.00264166       0.00862723 
Ti       5.70590456       3.80862893      11.14882695      -0.00760841       0.00835961      -0.01002561 
O       0.90361552       3.82700204      11.10490573       0.00582098      -0.00296849      -0.00774761 
O       6.05944215       5.71882480      11.09353427       0.00400803       0.01064710      -0.00866093 
O       9.01349723       5.69069646      11.95912475       0.00156905       0.00062023      -0.01466927 
O       3.83378835       3.82790999      11.94796526       0.00035607      -0.00313033       0.01638084 
O       7.54346496       3.81688984      10.45413365       0.01353597       0.01056493      -0.00843006 
O       2.37129793       5.72824581      10.45297832       0.00323031      -0.00134768      -0.00005274 
O       0.87309058       5.85191933      13.15460091       0.01227901      -0.00163793       0.00248408 
O       6.03648488       3.83637775      13.21238361       0.00078146       0.00276744      -0.00139720 
Ti       4.07535078       3.91826090      13.80781205      -0.00141159       0.00001400      -0.00076459 
Ti       9.41784110       5.76900511      13.93752555       0.02031683      -0.00195587       0.00303717 
Ti       1.85394939       5.70573091      15.01214135       0.01374756       0.00417539      -0.01212599 
Ti       7.14403791       3.82263513      14.66423101       0.00972496      -0.00809944       0.00763904 
O       2.27610168       3.84234639      14.59795940       0.00014704       0.00455654      -0.01913661 
O       7.50120279       5.74307431      14.80597055       0.00506809      -0.00466722      -0.00042850 
O       0.08796296       5.55454138      15.48314992      -0.00509273       0.00629915       0.00431138 
O       5.19662880       3.63404125      15.63871698       0.00877488       0.00875567      -0.00811500 
O       8.86747562       3.78777117      13.94641315      -0.00008494       0.02021043       0.00673340 
O       3.85729303       5.72661059      14.00063920       0.00189212      -0.01183527       0.00492939 
O       8.47657182       9.55586250       6.00000000      -1.87266618       0.00390676       1.56244588 
O       3.30569868       7.64469000       6.00000000      -1.86205629      -0.00928213       1.56756562 
Ti       1.41275186       7.64469000       6.75295684       3.80576514       0.06832051       1.97141733 
Ti       6.58362500       9.55586250       6.75295684       3.85388409      -0.00087570       1.97285133 
Ti       9.52224953       9.55586250       7.64087763      -1.93354019      -0.01231791      -2.06432214 
Ti       4.35137640       7.64469000       7.64087763      -1.91225283       0.05223364      -2.05370117 
O       9.86155132       7.64469000       7.50591367       0.92210554      -0.01448435      -0.21925295 
O       4.69067818       9.55586250       7.50591367       0.90037470       0.00479383      -0.18419578 
O       7.62930272       9.55586250       8.39383447      -0.84270418      -0.02370229      -0.56350310 
O       2.45842958       7.64469000       8.39383447      -0.84305568      -0.02018559      -0.56429258 
O       6.24432321       7.64469000       6.88792080      -0.21699055      -0.06008025      -0.72572848 
O       1.07345007       9.55586250       6.88792080      -0.19880986       0.00355805      -0.74148159 
O       9.80167168       9.56176604       9.57935093       0.00249533       0.00025596       0.00639015 
O       4.62580804       7.64514396       9.58331190       0.00006572      -0.00149153       0.00021398 
Ti       2.74770414       7.68025707      10.38048602       0.00718290       0.00288418       0.00522465 
Ti       7.91249147       9.53750408      10.38951772      -0.00983672       0.00735241       0.00355297 
Ti       0.46925803       9.55474536      11.12417126       0.00541171      -0.00267740      -0.01413869 
Ti       5.66102156       7.58222447      11.11868273      -0.00057927      -0.00881672       0.00252757 
O       0.90014413       7.65433273      11.07583305       0.00209061      -0.00077614       0.00349656 
O       6.07824855       9.55056808      11.07186174       0.00315084      -0.00122849       0.00057431 
O       9.02334653       9.53818730      11.94508632       0.00681341       0.00048347       0.00133155 
O       3.85389304       7.62103900      11.95175010       0.00965417       0.00902778      -0.00202676 
O       7.55238186       7.62477835      10.44822436       0.00207893      -0.00622662       0.00263236 
O       2.37904660       9.55578051      10.44804341      -0.00190900      -0.00569099      -0.00068429 
O       0.92038397       9.55805870      13.07616035      -0.00282132      -0.00717917       0.00687709 
O       6.09943241       7.66564967      13.06584905      -0.01058455       0.00561199       0.00880702 
Ti       4.16195559       7.70434273      13.98313855      -0.00241164      -0.00280189      -0.00851063 
Ti       9.39229511       9.52989218      14.03033916      -0.00380463       0.00629686       0.00821815 
Ti       1.84972096       9.54557851      14.59135405       0.00480289       0.01624988      -0.00483842 
Ti       6.99953218       7.62795282      14.58368835       0.01448182       0.01044177       0.00386151 
O       2.36829985       7.67303204      14.79244728       0.00339008       0.01102227      -0.00368065 
O       7.56004760       9.53851072      14.80936651       0.00096566       0.00813475      -0.00602853 
O       0.22030690       9.55090307      15.45427614      -0.00306349      -0.00449921      -0.00691968 
O       5.39028807       7.64489877      15.45908644       0.00058698       0.01928758      -0.00501995 
O       9.01791027       7.62720854      13.96833732       0.00298306       0.00245269      -0.00175735 
O       3.83857885       9.54044428      13.95121961       0.00338238       0.00166904      -0.00453158 
V       3.56316926       5.74764906      18.19504996      -0.00065146       0.01603985      -0.01627414 
V       4.46327881       2.83606547      17.04351879      -0.00836263       0.00760900      -0.01475576 
O       4.16364053       4.00696163      18.29562961      -0.00162740       0.02069644       0.00776635 
O       5.58660939       1.60202847      17.62485328      -0.00001035       0.00058860       0.01716713 
O       2.79171569       6.12384500      19.54152877      -0.00272768       0.01225106      -0.01193690 
O       4.91310318       6.88503728      18.04251851      -0.01040565       0.01873575       0.01336473 
O       2.55577853       5.74776055      16.74605029       0.00935225      -0.00681228      -0.00371016 
O       3.03350799       2.13262389      16.54946160       0.01446744      -0.01037835      -0.00121592 
O       7.96773706       3.84004549      16.74661534       0.01023067      -0.03688066       0.00606089 
H       5.15610473       7.08747361      17.07882857       0.00568116       0.02820709      -0.00505070 
H       5.49623456       0.79010335      17.02194052      -0.00995460       0.00571747      -0.00310854 
H       8.24813608       2.93087051      17.01344610       0.00992305       0.00805630       0.01229061 
H       8.80635069       4.37305788      16.72623050       0.01752106       0.00692621       0.02333749 
