121
Lattice="10.341746277552646 0.0 0.0 -2.619435405085487e-16 11.467 0.0 0.0 0.0 23.497200848665354" Properties=species:S:1:pos:R:3:forces:R:3 energy=-871.8350143202571 dipole="-14.414730514894034 -18.78913159635802 -1.1811754580400764" pbc="T T F"
O       8.47657182       1.91117250       6.00000000      -1.86846706       0.01370474       1.53881682 
O       3.30569868       0.00000000       6.00000000      -1.90382227      -0.00206822       1.54027299 
Ti       1.41275186       0.00000000       6.75295684       3.83588426       0.01111387       1.96971506 
Ti       6.58362500       1.91117250       6.75295684       3.88718964      -0.08086782       2.02105059 
Ti       9.52224953       1.91117250       7.64087763      -1.98676397      -0.05853187      -2.01348217 
Ti       4.35137640       0.00000000       7.64087763      -1.85907372       0.01183500      -2.03160491 
O       9.86155132       0.00000000       7.50591367       0.92635076       0.01436737      -0.22103903 
O       4.69067818       1.91117250       7.50591367       0.87626834       0.09299832      -0.20472472 
O       7.62930272       1.91117250       8.39383447      -0.83263457       0.02262197      -0.59502791 
O       2.45842958       0.00000000       8.39383447      -0.81963759       0.01914206      -0.55915846 
O       6.24432321       0.00000000       6.88792080      -0.21375097      -0.02709376      -0.74979541 
O       1.07345007       1.91117250       6.88792080      -0.16350494       0.10711203      -0.74370625 
O       9.80742666       1.92959770       9.57668667       0.01099331       0.00310703      -0.00533709 
O       4.64535459      11.47397369       9.57384980       0.00561312      -0.00402269       0.00518195 
Ti       2.74530635       0.02828100      10.38255937       0.00855333       0.00267996      -0.00975103 
Ti       7.92449069       1.89353843      10.39409340       0.00690060       0.00474682      -0.01571718 
Ti       0.48867371       1.94977624      11.11754072       0.00427451       0.00603629      -0.01489352 
Ti       5.66317473      11.44095173      11.11431445       0.00340923       0.00429335      -0.00197954 
O       0.91991929      11.48728826      11.06999474      -0.00159604       0.00536097       0.00216886 
O       6.09288847       1.91410158      11.07769718      -0.01116885      -0.00745982       0.00474567 
O       9.02871204       1.90341842      11.93906987       0.00485438       0.00147132       0.00077269 
O       3.87225851       0.01927277      11.93597660      -0.00045909       0.00416130      -0.00355185 
O       7.56938875      11.46137654      10.44429387      -0.00869154       0.00060588       0.00177417 
O       2.39083164       1.93159445      10.44167995      -0.00136083      -0.00630213       0.00439221 
O       0.91831655       1.93026125      13.06542273       0.00666028       0.00504887       0.00892550 
O       6.12846588       0.01462496      13.06744516       0.00122144      -0.00180599       0.01770848 
Ti       4.21341373      11.55175633      13.96988979      -0.00948125       0.00256777       0.00452588 
Ti       9.39592256       1.84959654      14.01261687      -0.00344987       0.00506463       0.00431921 
Ti       1.84219154       1.92846915      14.58642468       0.00675040      -0.00138785       0.00955383 
Ti       7.00558907      11.45030611      14.60727330       0.00537434       0.00472144       0.00529258 
O       2.40295439       0.08045734      14.77179070      -0.00453340      -0.00063586       0.00356969 
O       7.57149962       1.87630053      14.80934774      -0.00000268       0.01577565      -0.00487048 
O       0.22239655       1.87403438      15.44677846       0.00596054       0.01260953       0.00648721 
O       5.37721640       0.02547280      15.44967630       0.00089661       0.00446167      -0.00019577 
O       9.02532037      11.45180635      13.95328539       0.00208064      -0.00032036      -0.00491446 
O       3.85372351       1.93676049      13.93714570       0.00136736       0.00516542      -0.01096271 
O       8.47657182       5.73351750       6.00000000      -1.94792777       0.00742966       1.61694222 
O       3.30569868       3.82234500       6.00000000      -1.91870418       0.01388685       1.57878630 
Ti       1.41275186       3.82234500       6.75295684       3.65833787      -0.08355553       1.76686535 
Ti       6.58362500       5.73351750       6.75295684       3.66559597      -0.02135409       1.72217388 
Ti       9.52224953       5.73351750       7.64087763      -1.51849658      -0.00854524      -1.61430330 
Ti       4.35137640       3.82234500       7.64087763      -1.54562307      -0.07839045      -1.67663607 
O       9.86155132       3.82234500       7.50591367       0.95978128       0.10005753      -0.23506836 
O       4.69067818       5.73351750       7.50591367       0.91300897       0.04655163      -0.21627046 
O       7.62930272       5.73351750       8.39383447      -0.96820583       0.00032642      -0.65179231 
O       2.45842958       3.82234500       8.39383447      -0.87869248       0.04495249      -0.64811397 
O       6.24432321       3.82234500       6.88792080      -0.23768243       0.14636131      -0.69638533 
O       1.07345007       5.73351750       6.88792080      -0.19506774       0.01844439      -0.68922236 
O       9.79659783       5.75539150       9.60197590       0.00675837       0.00405454      -0.01702041 
O       4.64172867       3.83648869       9.60435151      -0.00167101       0.00080090       0.00497572 
Ti       2.78670927       3.83525339      10.31674363       0.00834525      -0.00571623       0.00549647 
Ti       7.99770384       5.74390702      10.29952935      -0.00665726       0.00130538       0.00549349 
Ti       0.60863108       5.75860214      11.25875733       0.00866277      -0.00274919       0.00588233 
Ti       5.74028557       3.84052139      11.20863031       0.00302761       0.00728716       0.00709814 
O       0.91041249       3.83790017      11.07822869      -0.00240238      -0.00638177      -0.00505400 
O       6.06884908       5.74920899      11.11108692      -0.00011800      -0.00725477       0.00603529 
O       9.04718825       5.72370070      11.94692632      -0.00094081       0.01268814      -0.00790977 
O       3.83244544       3.82805523      11.94178356      -0.01143779       0.00966167      -0.01294218 
O       7.55162528       3.84335029      10.45693094       0.00005250       0.00855923       0.00015102 
O       2.39149624       5.75065333      10.45042289       0.00723806       0.00311751      -0.00657221 
O       0.91994977       5.74924846      13.14652797       0.00704110      -0.00356663       0.00031968 
O       6.02707684       3.76966070      13.16557962       0.01053159       0.02202308      -0.00566365 
Ti       4.21716580       3.83484902      13.79504656      -0.00693153      -0.00293819      -0.00483377 
Ti       9.35957960       5.68292514      13.79659594       0.00189598      -0.00730128       0.00048962 
Ti       2.10591825       5.70318322      14.83188708      -0.00743981      -0.00988076      -0.00810538 
Ti       7.22816938       3.83019032      14.83464721       0.01407658      -0.01539651      -0.01776348 
O       2.37705224       3.79622802      14.80346623      -0.01199882       0.01864074      -0.00242198 
O       7.50702475       5.71945766      14.36446168      -0.02658149      -0.00020393      -0.01419686 
O       0.20075378       5.66978750      15.48313988      -0.01967791       0.01645797       0.02204642 
O       5.33931390       3.81056830      15.49080087      -0.00855286      -0.01005937       0.01447725 
O       9.02582451       3.78892335      13.96068313       0.01213608       0.00976933       0.00340312 
O       3.78903010       5.71625461      13.92272623       0.02700489       0.00357021      -0.00711056 
O       8.47657182       9.55586250       6.00000000      -1.86800107      -0.00656849       1.54479736 
O       3.30569868       7.64469000       6.00000000      -1.89874136      -0.00860540       1.60718743 
Ti       1.41275186       7.64469000       6.75295684       3.62622625       0.08419001       1.75592056 
Ti       6.58362500       9.55586250       6.75295684       3.85668836       0.09463707       1.97411645 
Ti       9.52224953       9.55586250       7.64087763      -1.87676459       0.07041848      -1.81997485 
Ti       4.35137640       7.64469000       7.64087763      -1.53636177       0.05790687      -1.65578566 
O       9.86155132       7.64469000       7.50591367       0.96040366      -0.02123480      -0.24828858 
O       4.69067818       9.55586250       7.50591367       0.88594086      -0.08470132      -0.21645663 
O       7.62930272       9.55586250       8.39383447      -0.80972073      -0.05155941      -0.61281535 
O       2.45842958       7.64469000       8.39383447      -0.86949075       0.00528468      -0.71948723 
O       6.24432321       7.64469000       6.88792080      -0.24559911      -0.11201615      -0.67967628 
O       1.07345007       9.55586250       6.88792080      -0.17643635      -0.12619680      -0.72252347 
O       9.81742802       9.57393887       9.59158936       0.00193130       0.00389637      -0.00521045 
O       4.63861171       7.65875533       9.61272487      -0.00153966      -0.00625908       0.01019326 
Ti       2.79546682       7.69501994      10.31171996       0.01110816       0.01030291       0.00355917 
Ti       7.96522262       9.56448890      10.37146346      -0.00024831      -0.00293296       0.00958074 
Ti       0.50177161       9.55998445      11.18923041       0.00192622      -0.00459978       0.01714844 
Ti       5.73184735       7.62461893      11.23797123      -0.01523609      -0.00489627      -0.01930471 
O       0.91029382       7.67453255      11.09587372       0.01327758      -0.00859366      -0.00451074 
O       6.08680374       9.55877650      11.08142938       0.01028877       0.01042997      -0.00169363 
O       9.03683483       9.53783613      11.94554349      -0.00717295      -0.00718950       0.00487357 
O       3.85012008       7.65071614      11.95450561      -0.00611470       0.00486806      -0.00304103 
O       7.55683799       7.63739962      10.45909873       0.00337916      -0.00788636      -0.00326897 
O       2.39833765       9.56269357      10.44841547      -0.00589557       0.00222749      -0.00160430 
O       0.92121788       9.68977188      13.13554843       0.00590113       0.00133114       0.01684219 
O       6.03428417       7.75801967      13.21696868       0.01730889      -0.00451185       0.00275106 
Ti       4.17285055       7.79567265      13.81599214      -0.01409899       0.00100942       0.00172371 
Ti       9.44573904       9.58568413      13.99720248      -0.00159743       0.00391617      -0.00363179 
Ti       1.86340433       9.57942268      14.76714040      -0.00180529       0.00320302       0.00889262 
Ti       7.24141005       7.64589063      14.79263104       0.00923115       0.02883866       0.00486670 
O       2.34630840       7.73511937      14.61982124      -0.00558954       0.00005367       0.00616065 
O       7.54127079       9.57919618      14.82022020       0.00275726       0.00103801      -0.00839055 
O       0.19457969       9.51395455      15.47912830       0.00616722       0.00480034       0.00541171 
O       5.16378959       7.48829076      15.60343306      -0.00716037      -0.02373611       0.02699021 
O       8.98285968       7.66418009      13.97468811       0.00645325       0.01286087       0.01129624 
O       3.87921764       9.61181484      13.94615844      -0.00210323      -0.00485954       0.00423639 
V       7.36476877       5.74293732      17.53373896      -0.01599683      -0.00098565       0.01798690 
V       4.37120809       6.78803279      17.04829833      -0.01392646       0.03391092       0.01385917 
O       5.57338374       5.72292497      17.84404196      -0.01100093      -0.00428349      -0.00688561 
O       7.75439750       4.28337771      16.56608113       0.01052411       0.00274094      -0.00284272 
O       3.91823484       7.97906721      18.06421387      -0.01192189      -0.04069938      -0.01137372 
O       2.94545483       5.91563322      16.54565388      -0.02344769      -0.02662149      -0.01630962 
O       2.76686392       9.91305027      16.74247151      -0.01773535       0.01658100      -0.00163440 
O       8.20047919       5.73791992      18.89699467       0.00430408      -0.00374710      -0.00941206 
O       7.72684546       7.18458448      16.56770218       0.00216388      -0.00163521      -0.00589334 
H       3.11221542       9.15457311      17.33306057      -0.00810218       0.00540928       0.00679445 
H      10.24603819       5.37117200      16.37320793       0.00411886       0.02152440      -0.00077344 
H       3.52930176      10.53805080      16.68540787       0.02764899       0.03764358      -0.01468709 
H       5.08911649       3.99830807      16.42549203      -0.00526397       0.00098589       0.00302454 
