
  ___ ___ ___ _ _ _  
 |   |   |_  | | | | 
 | | | | | . | | | | 
 |__ |  _|___|_____|  1.5.1
 |___|_|             

User:   siva@s81n42.grendel.cscaa.dk
Date:   Wed Feb 26 16:05:15 2020
Arch:   x86_64
Pid:    10330
Python: 3.6.3
gpaw:   /home/siva/gpaw-1.5.1/gpaw
_gpaw:  /home/siva/gpaw-1.5.1/build/bin.linux-x86_64-3.6/gpaw-python
ase:    /home/siva/env1.5/lib/python3.6/site-packages/ase (version 3.17.0)
numpy:  /home/siva/env1.5/lib/python3.6/site-packages/numpy (version 1.16.0)
scipy:  /home/siva/env1.5/lib/python3.6/site-packages/scipy (version 1.2.0)
units:  Angstrom and eV
cores:  24
Extra parameters: {'blacs': True}

Input parameters:
  basis: dzp
  kpts: [2 2 1]
  mode: {ecut: 500.0,
         gammacentered: False,
         name: pw}
  xc: PBE

System changes: positions, numbers, cell, pbc, initial_charges, initial_magmoms 

Initialize ...

O-setup:
  name: Oxygen
  id: 32ecd46bf208036f09c70b0ec9a88b78
  Z: 8
  valence: 6
  core: 2
  charge: 0.0
  file: /home/wido/sw/gpaw/basis/gpaw-setups-0.9.20000/O.PBE.gz
  cutoffs: 0.67(comp), 1.17(filt), 0.83(core), lmax=2
  valence states:
                energy  radius
    2s(2.00)   -23.961   0.688
    2p(4.00)    -9.029   0.598
    *s           3.251   0.688
    *p          18.182   0.598
    *d           0.000   0.619

  LCAO basis set for O:
    Name: dzp
    File: /home/wido/sw/gpaw/basis/gpaw-setups-0.9.20000/O.dzp.basis.gz
    Number of radial functions: 5
    Number of spherical harmonics: 13
      l=0, rc=4.3438 Bohr: 2s-sz confined orbital
      l=1, rc=5.3906 Bohr: 2p-sz confined orbital
      l=0, rc=2.2969 Bohr: 2s-dz split-valence wave
      l=1, rc=2.8906 Bohr: 2p-dz split-valence wave
      l=2, rc=5.3906 Bohr: d-type Gaussian polarization

Ti-setup:
  name: Titanium
  id: d282db07e62ae71292040bf25b25ccdd
  Z: 22
  valence: 12
  core: 10
  charge: 0.0
  file: /home/wido/sw/gpaw/basis/gpaw-setups-0.9.20000/Ti.PBE.gz
  cutoffs: 1.22(comp), 2.23(filt), 1.02(core), lmax=2
  valence states:
                energy  radius
    3s(2.00)   -62.623   1.270
    4s(2.00)    -4.466   1.270
    3p(6.00)   -38.862   1.058
    4p(0.00)    -1.466   1.058
    3d(2.00)    -4.258   1.058
    *d          22.953   1.058

  LCAO basis set for Ti:
    Name: dzp
    File: /home/wido/sw/gpaw/basis/gpaw-setups-0.9.20000/Ti.dzp.basis.gz
    Number of radial functions: 11
    Number of spherical harmonics: 29
      l=0, rc=3.4375 Bohr: 3s-sz confined orbital
      l=0, rc=9.9062 Bohr: 4s-sz confined orbital
      l=1, rc=3.8906 Bohr: 3p-sz confined orbital
      l=1, rc=13.1094 Bohr: 4p-sz confined orbital
      l=2, rc=6.6250 Bohr: 3d-sz confined orbital
      l=0, rc=2.1406 Bohr: 3s-dz split-valence wave
      l=0, rc=6.0156 Bohr: 4s-dz split-valence wave
      l=1, rc=2.3125 Bohr: 3p-dz split-valence wave
      l=1, rc=8.1094 Bohr: 4p-dz split-valence wave
      l=2, rc=3.8594 Bohr: 3d-dz split-valence wave
      l=1, rc=9.9062 Bohr: p-type Gaussian polarization

V-setup:
  name: Vanadium
  id: a8354638d66c808f8c867a10b63fd727
  Z: 23
  valence: 13
  core: 10
  charge: 0.0
  file: /home/wido/sw/gpaw/basis/gpaw-setups-0.9.20000/V.PBE.gz
  cutoffs: 1.19(comp), 2.14(filt), 0.96(core), lmax=2
  valence states:
                energy  radius
    3s(2.00)   -70.222   1.254
    4s(2.00)    -4.702   1.254
    3p(6.00)   -44.043   1.281
    4p(0.00)    -1.444   1.281
    3d(3.00)    -5.164   1.169
    *d          22.047   1.169

  LCAO basis set for V:
    Name: dzp
    File: /home/wido/sw/gpaw/basis/gpaw-setups-0.9.20000/V.dzp.basis.gz
    Number of radial functions: 11
    Number of spherical harmonics: 29
      l=0, rc=3.2656 Bohr: 3s-sz confined orbital
      l=0, rc=9.5312 Bohr: 4s-sz confined orbital
      l=1, rc=3.6719 Bohr: 3p-sz confined orbital
      l=1, rc=12.8750 Bohr: 4p-sz confined orbital
      l=2, rc=6.0938 Bohr: 3d-sz confined orbital
      l=0, rc=2.0625 Bohr: 3s-dz split-valence wave
      l=0, rc=5.7656 Bohr: 4s-dz split-valence wave
      l=1, rc=2.4062 Bohr: 3p-dz split-valence wave
      l=1, rc=7.8906 Bohr: 4p-dz split-valence wave
      l=2, rc=3.6562 Bohr: 3d-dz split-valence wave
      l=1, rc=9.5312 Bohr: p-type Gaussian polarization

H-setup:
  name: Hydrogen
  id: d65de229564ff8ea4db303e23b6d1ecf
  Z: 1
  valence: 1
  core: 0
  charge: 0.0
  file: /home/wido/sw/gpaw/basis/gpaw-setups-0.9.20000/H.PBE.gz
  cutoffs: 0.48(comp), 0.85(filt), 0.53(core), lmax=2
  valence states:
                energy  radius
    1s(1.00)    -6.494   0.476
    *s          20.717   0.476
    *p           0.000   0.476

  LCAO basis set for H:
    Name: dzp
    File: /home/wido/sw/gpaw/basis/gpaw-setups-0.9.20000/H.dzp.basis.gz
    Number of radial functions: 3
    Number of spherical harmonics: 5
      l=0, rc=6.4219 Bohr: 1s-sz confined orbital
      l=0, rc=3.6094 Bohr: 1s-dz split-valence wave
      l=1, rc=6.4219 Bohr: p-type Gaussian polarization

Reference energy: -935653.237240

Spin-paired calculation

Occupation numbers:
  Fermi-Dirac: width=0.1000 eV

Convergence criteria:
  Maximum total energy change: 0.0005 eV / electron
  Maximum integral of absolute density change: 0.0001 electrons
  Maximum integral of absolute eigenstate change: 4e-08 eV^2
  Maximum number of iterations: 333

Symmetries present (total): 1

  ( 1  0  0)
  ( 0  1  0)
  ( 0  0  1)

4 k-points: 2 x 2 x 1 Monkhorst-Pack grid
2 k-points in the irreducible part of the Brillouin zone
       k-points in crystal coordinates                weights
   0:     0.25000000   -0.25000000    0.00000000          2/4
   1:     0.25000000    0.25000000    0.00000000          2/4

Wave functions: Plane wave expansion
  Cutoff energy: 500.000 eV
  Number of coefficients (min, max): 94343, 94343
  Pulay-stress correction: 0.000000 eV/Ang^3 (de/decut=0.000000)
  Using FFTW library
  ScaLapack parameters: grid=1x1, blocksize=None
  Wavefunction extrapolation:
    Improved wavefunction reuse through dual PAW basis 

Eigensolver
   Davidson(niter=2, smin=None, normalize=True) 

Densities:
  Coarse grid: 54*80*125 grid
  Fine grid: 108*160*250 grid
  Total Charge: 0.000000 

Density mixing:
  Method: separate
  Backend: pulay
  Linear mixing parameter: 0.05
  Mixing with 5 old densities
  Damping of long wave oscillations: 50 

Hamiltonian:
  XC and Coulomb potentials evaluated on a 108*160*250 grid
  Using the PBE Exchange-Correlation functional
 

XC parameters: PBE with 2 nearest neighbor stencil

Memory estimate:
  Process memory now: 326.25 MiB
  Calculator: 1542.68 MiB
    Density: 27.69 MiB
      Arrays: 9.00 MiB
      Localized functions: 15.23 MiB
      Mixer: 3.46 MiB
    Hamiltonian: 6.32 MiB
      Arrays: 5.88 MiB
      XC: 0.00 MiB
      Poisson: 0.00 MiB
      vbar: 0.44 MiB
    Wavefunctions: 1508.67 MiB
      Arrays psit_nG: 719.78 MiB
      Eigensolver: 765.14 MiB
      Projections: 0.97 MiB
      Projectors: 1.74 MiB
      PW-descriptor: 21.05 MiB

Total number of cores used: 24
Parallelization over k-points: 2
Domain decomposition: 2 x 2 x 3

Number of atoms: 105
Number of atomic orbitals: 1893
Number of bands in calculation: 500
Bands to converge: occupied states only
Number of valence electrons: 826

... initialized

Initializing position-dependent things.

Density initialized from atomic densities
Creating initial wave functions:
  500 bands from LCAO basis set

          .------------------------.  
         /|                        |  
        / |                        |  
       /  |                        |  
      /   |                        |  
     /    |                        |  
    /     |                        |  
   /      |                        |  
  /       |                        |  
 *        |                        |  
 |        |                        |  
 |        |                        |  
 |        |                    O   |  
 |        O    H  O         O      |  
 |        |   Oi      O   H O V    |  
 |     O  |   O V  O      Oi     Ti|  
 |        | TO     Oi     O   O    |  
 |    O   |      O     OTi    TiO  |  
 |        TiO     O    O    O      |  
 |        OTi   TiO  O TiO  Tii    |  
 |  O  O  |O  TiTi   Ti    O  O  O |  
 |      Tii  O OO   OOO   O        |  
 |      OO| O     OTii    Tii      |  
 |   O Ti | Tii     O   OO     O   |  
 |    O   |O     OOTi    Oi        |  
 |  Ti    |Oi  O  O    O     O     |  
 |  O    O|     Ti    Ti           |  
 |       Ti         O      O       |  
 |        |  O                     |  
 |        .------------------------.  
 |       /                        /   
 |      /                        /    
 |     /                        /     
 |    /                        /      
 |   /                        /       
 |  /                        /        
 | /                        /         
 |/                        /          
 *------------------------*           

Positions:
   0 O      9.985175    2.817512    7.418325    ( 0.0000,  0.0000,  0.0000)
   1 O      4.783264    0.944026    7.429735    ( 0.0000,  0.0000,  0.0000)
   2 Ti     2.996728    0.947334    8.325345    ( 0.0000,  0.0000,  0.0000)
   3 Ti     8.219380    2.762325    8.290231    ( 0.0000,  0.0000,  0.0000)
   4 Ti     0.657013    2.834279    8.996630    ( 0.0000,  0.0000,  0.0000)
   5 Ti     5.869204    0.907478    8.959613    ( 0.0000,  0.0000,  0.0000)
   6 O      1.103363    0.956808    8.933081    ( 0.0000,  0.0000,  0.0000)
   7 O      6.329588    2.829609    8.956631    ( 0.0000,  0.0000,  0.0000)
   8 O      9.244581    2.827586    9.849813    ( 0.0000,  0.0000,  0.0000)
   9 O      4.076120    0.928629    9.858025    ( 0.0000,  0.0000,  0.0000)
  10 O      7.779315    0.904056    8.349312    ( 0.0000,  0.0000,  0.0000)
  11 O      2.595771    2.888574    8.400027    ( 0.0000,  0.0000,  0.0000)
  12 O      1.092876    2.869829   11.029348    ( 0.0000,  0.0000,  0.0000)
  13 O      6.275716    0.918785   10.977295    ( 0.0000,  0.0000,  0.0000)
  14 Ti     4.408634    0.941457   11.950235    ( 0.0000,  0.0000,  0.0000)
  15 Ti     9.591671    2.839874   11.969214    ( 0.0000,  0.0000,  0.0000)
  16 Ti     2.026182    2.834968   12.550808    ( 0.0000,  0.0000,  0.0000)
  17 Ti     7.208152    0.948978   12.490345    ( 0.0000,  0.0000,  0.0000)
  18 O      2.569991    0.963234   12.758551    ( 0.0000,  0.0000,  0.0000)
  19 O      7.699615    2.877841   12.644702    ( 0.0000,  0.0000,  0.0000)
  20 O      0.383630    2.853788   13.406986    ( 0.0000,  0.0000,  0.0000)
  21 O      5.579255    1.002359   13.366776    ( 0.0000,  0.0000,  0.0000)
  22 O      9.186648    0.955394   11.982968    ( 0.0000,  0.0000,  0.0000)
  23 O      3.979703    2.906616   11.869884    ( 0.0000,  0.0000,  0.0000)
  24 O      9.991278    6.701856    7.416697    ( 0.0000,  0.0000,  0.0000)
  25 O      4.640266    4.766143    7.909177    ( 0.0000,  0.0000,  0.0000)
  26 Ti     2.785188    4.773225    7.999495    ( 0.0000,  0.0000,  0.0000)
  27 Ti     8.229211    6.736926    8.289676    ( 0.0000,  0.0000,  0.0000)
  28 Ti     0.713114    6.678008    9.182537    ( 0.0000,  0.0000,  0.0000)
  29 Ti     6.097007    4.748224    9.019115    ( 0.0000,  0.0000,  0.0000)
  30 O      1.068649    4.768040    8.949376    ( 0.0000,  0.0000,  0.0000)
  31 O      6.345333    6.683354    8.967611    ( 0.0000,  0.0000,  0.0000)
  32 O      9.250078    6.673119    9.846712    ( 0.0000,  0.0000,  0.0000)
  33 O      7.808095    4.756638    8.258519    ( 0.0000,  0.0000,  0.0000)
  34 O      2.604899    6.643057    8.416669    ( 0.0000,  0.0000,  0.0000)
  35 O      1.070322    6.587695   11.129683    ( 0.0000,  0.0000,  0.0000)
  36 O      6.013840    4.754736   10.980299    ( 0.0000,  0.0000,  0.0000)
  37 Ti     4.391632    4.731712   12.281363    ( 0.0000,  0.0000,  0.0000)
  38 Ti     9.639196    6.668426   11.944273    ( 0.0000,  0.0000,  0.0000)
  39 Ti     2.051311    6.645584   12.900387    ( 0.0000,  0.0000,  0.0000)
  40 Ti     7.223535    4.768777   12.415410    ( 0.0000,  0.0000,  0.0000)
  41 O      2.553582    4.711808   12.975561    ( 0.0000,  0.0000,  0.0000)
  42 O      7.671033    6.629417   12.754501    ( 0.0000,  0.0000,  0.0000)
  43 O      0.325671    6.691236   13.493014    ( 0.0000,  0.0000,  0.0000)
  44 O      5.687958    4.741280   13.512735    ( 0.0000,  0.0000,  0.0000)
  45 O      9.137315    4.771867   11.878847    ( 0.0000,  0.0000,  0.0000)
  46 O      3.963473    6.556747   11.816259    ( 0.0000,  0.0000,  0.0000)
  47 O      9.986778   10.513690    7.368738    ( 0.0000,  0.0000,  0.0000)
  48 O      4.837462    8.581566    7.404937    ( 0.0000,  0.0000,  0.0000)
  49 Ti     2.951323    8.588260    8.230297    ( 0.0000,  0.0000,  0.0000)
  50 Ti     8.135229   10.562779    8.208054    ( 0.0000,  0.0000,  0.0000)
  51 Ti     0.703342   10.528005    9.039919    ( 0.0000,  0.0000,  0.0000)
  52 Ti     5.913467    8.584452    8.939847    ( 0.0000,  0.0000,  0.0000)
  53 O      1.126777    8.573547    8.964116    ( 0.0000,  0.0000,  0.0000)
  54 O      6.301630   10.503252    8.965499    ( 0.0000,  0.0000,  0.0000)
  55 O      9.257931   10.435313    9.752852    ( 0.0000,  0.0000,  0.0000)
  56 O      4.081221    8.578441    9.762693    ( 0.0000,  0.0000,  0.0000)
  57 O      7.788076    8.609499    8.329822    ( 0.0000,  0.0000,  0.0000)
  58 O      2.604964   10.485475    8.378379    ( 0.0000,  0.0000,  0.0000)
  59 O      1.033400   10.546075   11.083614    ( 0.0000,  0.0000,  0.0000)
  60 O      6.201765    8.492989   11.074157    ( 0.0000,  0.0000,  0.0000)
  61 Ti     4.280912    8.443141   11.659507    ( 0.0000,  0.0000,  0.0000)
  62 Ti     9.452984   10.575891   11.688662    ( 0.0000,  0.0000,  0.0000)
  63 Ti     2.152951   10.554983   12.570949    ( 0.0000,  0.0000,  0.0000)
  64 Ti     7.267695    8.534861   12.574031    ( 0.0000,  0.0000,  0.0000)
  65 O      2.512519    8.565539   12.462519    ( 0.0000,  0.0000,  0.0000)
  66 O      7.663455   10.475373   12.449633    ( 0.0000,  0.0000,  0.0000)
  67 O      0.086594   10.492389   13.456884    ( 0.0000,  0.0000,  0.0000)
  68 O      5.276508    8.546609   13.436114    ( 0.0000,  0.0000,  0.0000)
  69 O      9.076284    8.531620   11.866387    ( 0.0000,  0.0000,  0.0000)
  70 O      3.916565   10.520626   11.857125    ( 0.0000,  0.0000,  0.0000)
  71 O      9.957030   14.309259    7.417550    ( 0.0000,  0.0000,  0.0000)
  72 O      4.798233   12.398394    7.474657    ( 0.0000,  0.0000,  0.0000)
  73 Ti     3.057499   12.413847    8.312568    ( 0.0000,  0.0000,  0.0000)
  74 Ti     8.179529   14.346737    8.308888    ( 0.0000,  0.0000,  0.0000)
  75 Ti     0.684192   14.303754    8.970902    ( 0.0000,  0.0000,  0.0000)
  76 Ti     5.883075   12.439503    9.140100    ( 0.0000,  0.0000,  0.0000)
  77 O      1.099276   12.399258    8.928075    ( 0.0000,  0.0000,  0.0000)
  78 O      6.275489   14.321207    8.946084    ( 0.0000,  0.0000,  0.0000)
  79 O      9.256793   14.385324    9.842472    ( 0.0000,  0.0000,  0.0000)
  80 O      4.056595   12.445376    9.891928    ( 0.0000,  0.0000,  0.0000)
  81 O      7.783982   12.420145    8.403254    ( 0.0000,  0.0000,  0.0000)
  82 O      2.592515   14.315095    8.372199    ( 0.0000,  0.0000,  0.0000)
  83 O      1.113205   14.334253   10.990462    ( 0.0000,  0.0000,  0.0000)
  84 O      6.237134   12.452652   11.102677    ( 0.0000,  0.0000,  0.0000)
  85 Ti     4.487981   12.424934   11.945719    ( 0.0000,  0.0000,  0.0000)
  86 Ti     9.579340   14.325930   11.945368    ( 0.0000,  0.0000,  0.0000)
  87 Ti     2.035174   14.321550   12.511369    ( 0.0000,  0.0000,  0.0000)
  88 Ti     7.250034   12.439577   12.861141    ( 0.0000,  0.0000,  0.0000)
  89 O      2.513098   12.424017   12.776675    ( 0.0000,  0.0000,  0.0000)
  90 O      7.728416   14.346475   12.761939    ( 0.0000,  0.0000,  0.0000)
  91 O      0.403571   14.317848   13.373478    ( 0.0000,  0.0000,  0.0000)
  92 O      5.528757   12.364132   13.481115    ( 0.0000,  0.0000,  0.0000)
  93 O      9.166016   12.429005   11.829554    ( 0.0000,  0.0000,  0.0000)
  94 O      4.022191   14.329239   12.010759    ( 0.0000,  0.0000,  0.0000)
  95 V      4.163500    8.530519   14.702318    ( 0.0000,  0.0000,  0.0000)
  96 O      3.076368   10.089501   14.538548    ( 0.0000,  0.0000,  0.0000)
  97 O      3.137277    7.068484   14.535796    ( 0.0000,  0.0000,  0.0000)
  98 O      4.926927    8.588526   16.144811    ( 0.0000,  0.0000,  0.0000)
  99 V      9.315138   10.654465   14.713383    ( 0.0000,  0.0000,  0.0000)
 100 O      8.401637   12.121944   14.507023    ( 0.0000,  0.0000,  0.0000)
 101 O      8.207929    9.110659   14.576874    ( 0.0000,  0.0000,  0.0000)
 102 O      9.969179   10.625704   16.160240    ( 0.0000,  0.0000,  0.0000)
 103 H      8.132561    8.506697   15.339884    ( 0.0000,  0.0000,  0.0000)
 104 H      3.088307   10.751097   15.255595    ( 0.0000,  0.0000,  0.0000)

Unit cell:
           periodic     x           y           z      points  spacing
  1. axis:    yes   10.341746    0.000000    0.000000    54     0.1915
  2. axis:    yes   -0.000000   15.289380    0.000000    80     0.1911
  3. axis:    yes    0.000000    0.000000   23.497201   125     0.1880

  Lengths:  10.341746  15.289380  23.497201
  Angles:   90.000000  90.000000  90.000000

Effective grid spacing dv^(1/3) = 0.1902

                     log10-error:    total        iterations:
           time      wfs    density  energy       fermi  poisson
iter:   1  16:07:01  -0.09   +inf  -978.226573    4             
iter:   2  16:07:30  -0.95  -0.95  -935.663118    29            
iter:   3  16:07:59  +0.42  -1.00  -854.206959    37            
iter:   4  16:08:29  -0.53  -1.34  -858.714094    34            
iter:   5  16:08:58  -1.45  -1.34  -864.156598    31            
iter:   6  16:09:28  -0.50  -1.34  -861.672512    5             
iter:   7  16:09:57  -0.91  -1.67  -863.973258    5             
iter:   8  16:10:27  -1.96  -1.75  -861.384164    4             
iter:   9  16:10:56  -0.86  -1.81  -860.468710    28            
iter:  10  16:11:26  -1.59  -1.86  -859.829909    5             
iter:  11  16:11:55  -2.13  -2.16  -859.643285    4             
iter:  12  16:12:25  -2.32  -2.18  -859.094329    5             
iter:  13  16:12:54  -2.39  -2.31  -859.026536    4             
iter:  14  16:13:24  -2.42  -2.34  -859.237692    4             
iter:  15  16:13:53  -2.44  -2.33  -858.972936    4             
iter:  16  16:14:23  -2.91  -2.54  -858.977160    3             
iter:  17  16:14:52  -3.71  -2.55  -858.963073    4             
iter:  18  16:15:22  -3.52  -2.64  -858.984634    3             
iter:  19  16:15:51  -3.78  -2.71  -858.994215    3             
iter:  20  16:16:21  -4.59  -2.81  -858.988540    3             
iter:  21  16:16:50  -4.14  -2.89  -858.981480    3             
iter:  22  16:17:20  -4.28  -2.97  -858.985255    3             
iter:  23  16:17:49  -4.39  -3.12  -858.981692    2             
iter:  24  16:18:19  -4.59  -3.26  -858.980017    3             
iter:  25  16:18:48  -4.78  -3.35  -858.981881    3             
iter:  26  16:19:18  -5.28  -3.54  -858.980357    3             
iter:  27  16:19:47  -5.40  -3.68  -858.980423    3             
iter:  28  16:20:17  -5.52  -3.79  -858.979967    3             
iter:  29  16:20:46  -6.46  -3.94  -858.980046    2             
iter:  30  16:21:16  -6.22  -4.00  -858.979970    2             
iter:  31  16:21:45  -5.79  -4.08  -858.979985    3             
iter:  32  16:22:15  -6.55  -4.27  -858.980015    2             
iter:  33  16:22:44  -6.78  -4.42  -858.980096    2             
iter:  34  16:23:14  -6.86  -4.53  -858.979952    2             
iter:  35  16:23:44  -6.94  -4.65  -858.980070    2             
iter:  36  16:24:13  -7.43  -4.74  -858.980075    2             

Converged after 36 iterations.

Dipole moment: (9.463829, -3.214869, -1.029240) |e|*Ang

Energy contributions relative to reference atoms: (reference = -935653.237240)

Kinetic:       +614.919180
Potential:     -782.895872
External:        +0.000000
XC:            -697.157674
Entropy (-ST):   -0.523945
Local:           +6.416265
--------------------------
Free energy:   -859.242048
Extrapolated:  -858.980075

Fermi level: -1.30509

Showing all kpts
 Kpt  Band  Eigenvalues  Occupancy
  0   411     -3.43107    1.00000
  0   412     -1.25511    0.37760
  0   413     -1.20523    0.26922
  0   414     -1.14535    0.16836

  1   411     -3.43107    1.00000
  1   412     -1.25075    0.36740
  1   413     -1.20942    0.27755
  1   414     -1.15002    0.17498



Forces in eV/Ang:
  0 O    -1.40776   -0.07016    1.18236
  1 O    -1.03229    0.01040    1.29160
  2 Ti    2.53706   -0.06683    1.27227
  3 Ti    2.44133    0.65181    0.93256
  4 Ti   -0.29015    0.10078   -1.09705
  5 Ti   -1.71498    0.29298   -1.02560
  6 O     0.27370   -0.18116   -0.11569
  7 O     0.28193    0.08492   -0.10534
  8 O    -0.95321   -0.05858   -0.28777
  9 O    -0.70907    0.02534   -0.25005
 10 O     0.11482    0.51277   -1.09751
 11 O     0.16437   -0.18438   -0.71732
 12 O    -0.01084   -0.00054   -0.01192
 13 O    -0.00565   -0.00591   -0.01226
 14 Ti    0.00870    0.02191    0.02225
 15 Ti    0.00329   -0.00387    0.02333
 16 Ti   -0.00115    0.01742    0.03030
 17 Ti    0.00774   -0.01945    0.03077
 18 O     0.00978   -0.00792   -0.01710
 19 O     0.00539    0.00970   -0.01178
 20 O    -0.01454   -0.00070   -0.02378
 21 O    -0.01376   -0.00330   -0.02036
 22 O    -0.00271    0.00654   -0.00689
 23 O    -0.00075   -0.00700   -0.00087
 24 O    -1.66183   -0.00223    1.98725
 25 O    -0.29159   -0.01884    0.27614
 26 Ti    0.47442    0.07851    0.46358
 27 Ti    3.77538   -0.03993    0.17584
 28 Ti   -0.80626   -0.00948   -1.90496
 29 Ti   -0.73692    0.21961   -0.06538
 30 O     0.13503   -0.14456    0.05252
 31 O    -0.03099   -0.33160    0.00083
 32 O    -0.97525    0.02529    0.32032
 33 O     0.04838   -0.26968   -0.72955
 34 O     0.19787    0.15886   -0.74145
 35 O     0.01468   -0.00071    0.02956
 36 O     0.00474    0.01416   -0.00718
 37 Ti   -0.03322    0.00742    0.08396
 38 Ti    0.04303   -0.01765    0.05525
 39 Ti    0.51847    0.24113    0.65810
 40 Ti   -0.02249   -0.05665    0.03644
 41 O    -0.01672   -0.03538   -0.03996
 42 O    -0.04494    0.11774    0.03647
 43 O     0.02556    0.00953   -0.01537
 44 O     0.03175   -0.00265   -0.03648
 45 O    -0.00173    0.02310   -0.00050
 46 O     0.08946    0.08675   -0.07467
 47 O    -1.36481    0.08476    2.00916
 48 O    -1.00411   -0.05056    1.28727
 49 Ti    2.60363   -0.04664    1.05402
 50 Ti    3.36501   -0.42248    0.60406
 51 Ti   -0.81482   -0.08582   -2.45204
 52 Ti   -1.36126    0.11496   -1.32230
 53 O     0.25928    0.08992    0.13520
 54 O     0.09160    0.14013    0.07737
 55 O    -1.19828    0.15706    0.63091
 56 O    -0.91560    0.01312    0.24746
 57 O     0.11220    0.06038   -1.03277
 58 O     0.23412   -0.00420   -0.80490
 59 O     0.03231    0.01417    0.09640
 60 O     0.05264    0.00296    0.14842
 61 Ti   -0.48519   -0.05222   -0.45228
 62 Ti   -0.31538    0.04781   -0.31259
 63 Ti    0.40208   -0.19383    0.09609
 64 Ti    0.66746    0.22094    0.06032
 65 O    -0.03151    0.09674   -0.13832
 66 O    -0.10203    0.16955   -0.04875
 67 O     2.71385   -0.15085   -2.13497
 68 O     2.35621    0.04026   -1.87574
 69 O    -0.02402    0.04653   -0.04076
 70 O     0.02855   -0.04239   -0.06047
 71 O    -1.23805    0.04054    1.31935
 72 O    -1.35624    0.05674    1.60951
 73 Ti    2.77378   -0.04951    0.87636
 74 Ti    3.14571   -0.88880    0.99016
 75 Ti   -0.95488   -0.04929   -1.42508
 76 Ti   -1.05563   -0.49882   -1.35918
 77 O     0.10985    0.11831    0.00985
 78 O     0.18057   -0.03146   -0.04443
 79 O    -0.83358   -0.05682   -0.08888
 80 O    -0.64134   -0.02182   -0.07674
 81 O     0.01175    0.17974   -0.71351
 82 O     0.22175    0.27502   -0.87736
 83 O     0.00376   -0.00400   -0.00517
 84 O     0.06223    0.03043    0.11171
 85 Ti   -0.04034    0.02997   -0.03643
 86 Ti   -0.00436    0.00504    0.06607
 87 Ti   -0.03222    0.04628    0.03120
 88 Ti    0.58710   -0.12128    0.52940
 89 O    -0.02900   -0.07666    0.00584
 90 O    -0.04626    0.01446   -0.07354
 91 O     0.03401    0.00148   -0.03624
 92 O     0.18031   -0.03294    0.07206
 93 O     0.07230   -0.10722   -0.13642
 94 O     0.00523   -0.02624    0.00077
 95 V    -2.38505   -0.73061    3.72981
 96 O    -0.21692    0.00510   -0.15007
 97 O     0.21123    0.69284   -0.39300
 98 O    -0.70694   -0.11834   -1.53234
 99 V    -2.88055    0.04533    2.41676
100 O    -0.73131   -0.03741   -0.73643
101 O    -0.40955   -0.28126   -0.15428
102 O     0.42798    0.08169    0.16525
103 H     0.05804    0.07374    0.06098
104 H     0.02622   -0.01807    0.04090

System changes: positions 

Initializing position-dependent things.

Density initialized from wave functions
          .------------------------.  
         /|                        |  
        / |                        |  
       /  |                        |  
      /   |                        |  
     /    |                        |  
    /     |                        |  
   /      |                        |  
  /       |                        |  
 *        |                        |  
 |        |                        |  
 |        |                        |  
 |        |                    O   |  
 |        O    H  O         O      |  
 |        |   Oi      O   H O V    |  
 |     O  |   O V  O      Oi     Ti|  
 |        | TO     Oi     O   O    |  
 |    O   |      O     OTi    TiO  |  
 |        TiO     O    O    O      |  
 |        OTi   TiO  O TiO  Tii    |  
 |  O  O  |O  TiTi   Ti    O  O  O |  
 |      Tii  O OO   OOO   O        |  
 |      OO| O     OTii    Tii      |  
 |   O Ti | Tii     O   OO     O   |  
 |    O   |O     OOTi    Oi        |  
 |  Ti    |Oi  O  O    O     O     |  
 |  O    O|     Ti    Ti           |  
 |       Ti         O      O       |  
 |        |  O                     |  
 |        .------------------------.  
 |       /                        /   
 |      /                        /    
 |     /                        /     
 |    /                        /      
 |   /                        /       
 |  /                        /        
 | /                        /         
 |/                        /          
 *------------------------*           

Positions:
   0 O      9.985175    2.817512    7.418325    ( 0.0000,  0.0000,  0.0000)
   1 O      4.783264    0.944026    7.429735    ( 0.0000,  0.0000,  0.0000)
   2 Ti     2.996728    0.947334    8.325345    ( 0.0000,  0.0000,  0.0000)
   3 Ti     8.219380    2.762325    8.290231    ( 0.0000,  0.0000,  0.0000)
   4 Ti     0.657013    2.834279    8.996630    ( 0.0000,  0.0000,  0.0000)
   5 Ti     5.869204    0.907478    8.959613    ( 0.0000,  0.0000,  0.0000)
   6 O      1.103363    0.956808    8.933081    ( 0.0000,  0.0000,  0.0000)
   7 O      6.329588    2.829609    8.956631    ( 0.0000,  0.0000,  0.0000)
   8 O      9.244581    2.827586    9.849813    ( 0.0000,  0.0000,  0.0000)
   9 O      4.076120    0.928629    9.858025    ( 0.0000,  0.0000,  0.0000)
  10 O      7.779315    0.904056    8.349312    ( 0.0000,  0.0000,  0.0000)
  11 O      2.595771    2.888574    8.400027    ( 0.0000,  0.0000,  0.0000)
  12 O      1.092779    2.869824   11.029242    ( 0.0000,  0.0000,  0.0000)
  13 O      6.275665    0.918732   10.977186    ( 0.0000,  0.0000,  0.0000)
  14 Ti     4.408712    0.941652   11.950433    ( 0.0000,  0.0000,  0.0000)
  15 Ti     9.591701    2.839840   11.969422    ( 0.0000,  0.0000,  0.0000)
  16 Ti     2.026172    2.835124   12.551078    ( 0.0000,  0.0000,  0.0000)
  17 Ti     7.208221    0.948805   12.490619    ( 0.0000,  0.0000,  0.0000)
  18 O      2.570078    0.963163   12.758399    ( 0.0000,  0.0000,  0.0000)
  19 O      7.699663    2.877927   12.644597    ( 0.0000,  0.0000,  0.0000)
  20 O      0.383501    2.853781   13.406774    ( 0.0000,  0.0000,  0.0000)
  21 O      5.579132    1.002330   13.366594    ( 0.0000,  0.0000,  0.0000)
  22 O      9.186624    0.955452   11.982906    ( 0.0000,  0.0000,  0.0000)
  23 O      3.979696    2.906553   11.869876    ( 0.0000,  0.0000,  0.0000)
  24 O      9.991278    6.701856    7.416697    ( 0.0000,  0.0000,  0.0000)
  25 O      4.640266    4.766143    7.909177    ( 0.0000,  0.0000,  0.0000)
  26 Ti     2.785188    4.773225    7.999495    ( 0.0000,  0.0000,  0.0000)
  27 Ti     8.229211    6.736926    8.289676    ( 0.0000,  0.0000,  0.0000)
  28 Ti     0.713114    6.678008    9.182537    ( 0.0000,  0.0000,  0.0000)
  29 Ti     6.097007    4.748224    9.019115    ( 0.0000,  0.0000,  0.0000)
  30 O      1.068649    4.768040    8.949376    ( 0.0000,  0.0000,  0.0000)
  31 O      6.345333    6.683354    8.967611    ( 0.0000,  0.0000,  0.0000)
  32 O      9.250078    6.673119    9.846712    ( 0.0000,  0.0000,  0.0000)
  33 O      7.808095    4.756638    8.258519    ( 0.0000,  0.0000,  0.0000)
  34 O      2.604899    6.643057    8.416669    ( 0.0000,  0.0000,  0.0000)
  35 O      1.070453    6.587689   11.129947    ( 0.0000,  0.0000,  0.0000)
  36 O      6.013882    4.754862   10.980235    ( 0.0000,  0.0000,  0.0000)
  37 Ti     4.391336    4.731778   12.282111    ( 0.0000,  0.0000,  0.0000)
  38 Ti     9.639580    6.668268   11.944765    ( 0.0000,  0.0000,  0.0000)
  39 Ti     2.055933    6.647733   12.906253    ( 0.0000,  0.0000,  0.0000)
  40 Ti     7.223334    4.768272   12.415735    ( 0.0000,  0.0000,  0.0000)
  41 O      2.553433    4.711492   12.975205    ( 0.0000,  0.0000,  0.0000)
  42 O      7.670632    6.630466   12.754826    ( 0.0000,  0.0000,  0.0000)
  43 O      0.325899    6.691321   13.492877    ( 0.0000,  0.0000,  0.0000)
  44 O      5.688241    4.741256   13.512410    ( 0.0000,  0.0000,  0.0000)
  45 O      9.137299    4.772073   11.878842    ( 0.0000,  0.0000,  0.0000)
  46 O      3.964271    6.557520   11.815593    ( 0.0000,  0.0000,  0.0000)
  47 O      9.986778   10.513690    7.368738    ( 0.0000,  0.0000,  0.0000)
  48 O      4.837462    8.581566    7.404937    ( 0.0000,  0.0000,  0.0000)
  49 Ti     2.951323    8.588260    8.230297    ( 0.0000,  0.0000,  0.0000)
  50 Ti     8.135229   10.562779    8.208054    ( 0.0000,  0.0000,  0.0000)
  51 Ti     0.703342   10.528005    9.039919    ( 0.0000,  0.0000,  0.0000)
  52 Ti     5.913467    8.584452    8.939847    ( 0.0000,  0.0000,  0.0000)
  53 O      1.126777    8.573547    8.964116    ( 0.0000,  0.0000,  0.0000)
  54 O      6.301630   10.503252    8.965499    ( 0.0000,  0.0000,  0.0000)
  55 O      9.257931   10.435313    9.752852    ( 0.0000,  0.0000,  0.0000)
  56 O      4.081221    8.578441    9.762693    ( 0.0000,  0.0000,  0.0000)
  57 O      7.788076    8.609499    8.329822    ( 0.0000,  0.0000,  0.0000)
  58 O      2.604964   10.485475    8.378379    ( 0.0000,  0.0000,  0.0000)
  59 O      1.033688   10.546201   11.084473    ( 0.0000,  0.0000,  0.0000)
  60 O      6.202234    8.493016   11.075480    ( 0.0000,  0.0000,  0.0000)
  61 Ti     4.276587    8.442675   11.655476    ( 0.0000,  0.0000,  0.0000)
  62 Ti     9.450172   10.576317   11.685875    ( 0.0000,  0.0000,  0.0000)
  63 Ti     2.156535   10.553255   12.571805    ( 0.0000,  0.0000,  0.0000)
  64 Ti     7.273645    8.536831   12.574569    ( 0.0000,  0.0000,  0.0000)
  65 O      2.512239    8.566401   12.461286    ( 0.0000,  0.0000,  0.0000)
  66 O      7.662545   10.476884   12.449198    ( 0.0000,  0.0000,  0.0000)
  67 O      0.110786   10.491044   13.437852    ( 0.0000,  0.0000,  0.0000)
  68 O      5.297513    8.546967   13.419393    ( 0.0000,  0.0000,  0.0000)
  69 O      9.076070    8.532034   11.866024    ( 0.0000,  0.0000,  0.0000)
  70 O      3.916819   10.520248   11.856586    ( 0.0000,  0.0000,  0.0000)
  71 O      9.957030   14.309259    7.417550    ( 0.0000,  0.0000,  0.0000)
  72 O      4.798233   12.398394    7.474657    ( 0.0000,  0.0000,  0.0000)
  73 Ti     3.057499   12.413847    8.312568    ( 0.0000,  0.0000,  0.0000)
  74 Ti     8.179529   14.346737    8.308888    ( 0.0000,  0.0000,  0.0000)
  75 Ti     0.684192   14.303754    8.970902    ( 0.0000,  0.0000,  0.0000)
  76 Ti     5.883075   12.439503    9.140100    ( 0.0000,  0.0000,  0.0000)
  77 O      1.099276   12.399258    8.928075    ( 0.0000,  0.0000,  0.0000)
  78 O      6.275489   14.321207    8.946084    ( 0.0000,  0.0000,  0.0000)
  79 O      9.256793   14.385324    9.842472    ( 0.0000,  0.0000,  0.0000)
  80 O      4.056595   12.445376    9.891928    ( 0.0000,  0.0000,  0.0000)
  81 O      7.783982   12.420145    8.403254    ( 0.0000,  0.0000,  0.0000)
  82 O      2.592515   14.315095    8.372199    ( 0.0000,  0.0000,  0.0000)
  83 O      1.113238   14.334218   10.990416    ( 0.0000,  0.0000,  0.0000)
  84 O      6.237689   12.452923   11.103673    ( 0.0000,  0.0000,  0.0000)
  85 Ti     4.487621   12.425202   11.945394    ( 0.0000,  0.0000,  0.0000)
  86 Ti     9.579302   14.325975   11.945957    ( 0.0000,  0.0000,  0.0000)
  87 Ti     2.034887   14.321962   12.511647    ( 0.0000,  0.0000,  0.0000)
  88 Ti     7.255267   12.438496   12.865860    ( 0.0000,  0.0000,  0.0000)
  89 O      2.512840   12.423334   12.776727    ( 0.0000,  0.0000,  0.0000)
  90 O      7.728004   14.346603   12.761283    ( 0.0000,  0.0000,  0.0000)
  91 O      0.403874   14.317861   13.373154    ( 0.0000,  0.0000,  0.0000)
  92 O      5.530365   12.363838   13.481758    ( 0.0000,  0.0000,  0.0000)
  93 O      9.166660   12.428049   11.828338    ( 0.0000,  0.0000,  0.0000)
  94 O      4.022238   14.329005   12.010766    ( 0.0000,  0.0000,  0.0000)
  95 V      4.142238    8.524006   14.735568    ( 0.0000,  0.0000,  0.0000)
  96 O      3.074434   10.089546   14.537210    ( 0.0000,  0.0000,  0.0000)
  97 O      3.139160    7.074661   14.532292    ( 0.0000,  0.0000,  0.0000)
  98 O      4.920625    8.587471   16.131151    ( 0.0000,  0.0000,  0.0000)
  99 V      9.289459   10.654869   14.734927    ( 0.0000,  0.0000,  0.0000)
 100 O      8.395118   12.121611   14.500458    ( 0.0000,  0.0000,  0.0000)
 101 O      8.204278    9.108152   14.575499    ( 0.0000,  0.0000,  0.0000)
 102 O      9.972994   10.626432   16.161713    ( 0.0000,  0.0000,  0.0000)
 103 H      8.133079    8.507354   15.340428    ( 0.0000,  0.0000,  0.0000)
 104 H      3.088541   10.750936   15.255959    ( 0.0000,  0.0000,  0.0000)

Unit cell:
           periodic     x           y           z      points  spacing
  1. axis:    yes   10.341746    0.000000    0.000000    54     0.1915
  2. axis:    yes   -0.000000   15.289380    0.000000    80     0.1911
  3. axis:    yes    0.000000    0.000000   23.497201   125     0.1880

  Lengths:  10.341746  15.289380  23.497201
  Angles:   90.000000  90.000000  90.000000

Effective grid spacing dv^(1/3) = 0.1902

                     log10-error:    total        iterations:
           time      wfs    density  energy       fermi  poisson
iter:   1  16:25:02  -2.14   +inf  -859.513401    3             
iter:   2  16:25:32  -3.19  -2.97  -859.470296    3             
iter:   3  16:26:01  -2.62  -3.02  -859.377234    4             
iter:   4  16:26:31  -3.62  -3.14  -859.384282    3             
iter:   5  16:27:00  -3.95  -3.22  -859.383102    3             
iter:   6  16:27:30  -3.59  -3.29  -859.370993    3             
iter:   7  16:28:00  -4.01  -3.47  -859.373081    3             
iter:   8  16:28:29  -3.87  -3.47  -859.371116    3             
iter:   9  16:28:59  -4.55  -3.65  -859.368451    3             
iter:  10  16:29:28  -5.06  -3.93  -859.368047    3             
iter:  11  16:29:58  -5.23  -3.99  -859.368239    3             
iter:  12  16:30:27  -6.13  -4.14  -859.367951    3             
iter:  13  16:30:57  -6.60  -4.19  -859.368274    2             
iter:  14  16:31:26  -6.73  -4.23  -859.368028    2             
iter:  15  16:31:56  -6.05  -4.33  -859.368256    3             
iter:  16  16:32:30  -6.44  -4.56  -859.368205    2             
iter:  17  16:33:00  -7.17  -4.70  -859.368183    2             
iter:  18  16:33:29  -6.98  -4.82  -859.368216    2             
iter:  19  16:33:59  -7.62  -4.96  -859.368190    2             

Converged after 19 iterations.

Dipole moment: (7.822679, -3.162754, -0.826212) |e|*Ang

Energy contributions relative to reference atoms: (reference = -935653.237240)

Kinetic:       +612.975988
Potential:     -781.536603
External:        +0.000000
XC:            -696.929561
Entropy (-ST):   -0.523456
Local:           +6.383714
--------------------------
Free energy:   -859.629918
Extrapolated:  -859.368190

Fermi level: -1.25463

Showing all kpts
 Kpt  Band  Eigenvalues  Occupancy
  0   411     -3.37997    1.00000
  0   412     -1.20547    0.37953
  0   413     -1.15509    0.26986
  0   414     -1.09372    0.16671

  1   411     -3.37996    1.00000
  1   412     -1.20101    0.36909
  1   413     -1.15949    0.27861
  1   414     -1.09815    0.17296



Forces in eV/Ang:
  0 O    -1.40723   -0.07103    1.17876
  1 O    -1.03175    0.00968    1.28759
  2 Ti    2.53700   -0.06713    1.27752
  3 Ti    2.44101    0.65414    0.93786
  4 Ti   -0.29077    0.10456   -1.09970
  5 Ti   -1.71524    0.29041   -1.02641
  6 O     0.27247   -0.18158   -0.11313
  7 O     0.28210    0.08230   -0.10279
  8 O    -0.95456   -0.05930   -0.28225
  9 O    -0.70988    0.02465   -0.24544
 10 O     0.11676    0.51169   -1.09668
 11 O     0.16586   -0.18591   -0.71539
 12 O    -0.00172   -0.00107    0.00581
 13 O     0.00401   -0.00510    0.00511
 14 Ti    0.00325    0.00876   -0.00243
 15 Ti   -0.00169    0.00679   -0.00462
 16 Ti   -0.00684   -0.00291   -0.00352
 17 Ti   -0.00114   -0.00801   -0.00236
 18 O     0.00276    0.00062   -0.00968
 19 O     0.00009    0.00104   -0.00513
 20 O    -0.00820   -0.00099   -0.00159
 21 O    -0.00641   -0.00094   -0.00013
 22 O    -0.00350   -0.00028   -0.00375
 23 O    -0.00226    0.00135    0.00393
 24 O    -1.66116   -0.00270    1.98247
 25 O    -0.29047   -0.01977    0.27324
 26 Ti    0.47489    0.07916    0.46957
 27 Ti    3.77386   -0.03838    0.18786
 28 Ti   -0.80578   -0.00664   -1.88303
 29 Ti   -0.73673    0.22775   -0.06259
 30 O     0.13358   -0.14936    0.05314
 31 O    -0.03020   -0.33920   -0.00306
 32 O    -0.97705    0.02458    0.32137
 33 O     0.05094   -0.27188   -0.72928
 34 O     0.20221    0.16243   -0.74054
 35 O     0.03072   -0.00547    0.06994
 36 O     0.00321    0.00961    0.00355
 37 Ti   -0.01142    0.01286    0.02878
 38 Ti    0.04033   -0.00627    0.00897
 39 Ti    0.33023    0.22890    0.38112
 40 Ti   -0.00661   -0.00835    0.00586
 41 O    -0.01453    0.01042   -0.00221
 42 O     0.00247    0.05480    0.03977
 43 O     0.10142    0.01151    0.03203
 44 O     0.01589   -0.00696    0.00100
 45 O    -0.00151    0.01312    0.00230
 46 O     0.02786    0.01143   -0.04059
 47 O    -1.37033    0.08579    1.99579
 48 O    -1.01337   -0.05096    1.26731
 49 Ti    2.59804   -0.04352    1.05429
 50 Ti    3.36368   -0.42548    0.60952
 51 Ti   -0.79333   -0.08659   -2.39811
 52 Ti   -1.33137    0.11549   -1.27104
 53 O     0.26192    0.08703    0.13090
 54 O     0.09307    0.14452    0.07197
 55 O    -1.20158    0.15240    0.58642
 56 O    -0.92151    0.01859    0.17897
 57 O     0.11588    0.06355   -1.03603
 58 O     0.23998   -0.00875   -0.80807
 59 O     0.06786    0.01682   -0.03293
 60 O     0.10128    0.00336    0.02850
 61 Ti   -0.21054    0.00168   -0.13861
 62 Ti   -0.09407    0.01196   -0.11872
 63 Ti    0.12818   -0.15799    0.01704
 64 Ti    0.26763    0.16183   -0.04860
 65 O    -0.06451    0.01736   -0.09932
 66 O    -0.08448    0.20758    0.00448
 67 O     1.35031    0.00891   -0.80928
 68 O     1.07992    0.01329   -0.61591
 69 O     0.03519    0.02141   -0.05923
 70 O     0.06620   -0.00944   -0.08230
 71 O    -1.23833    0.04124    1.31531
 72 O    -1.35734    0.05755    1.60426
 73 Ti    2.77355   -0.05114    0.88637
 74 Ti    3.14500   -0.88962    0.99725
 75 Ti   -0.95438   -0.05604   -1.42334
 76 Ti   -1.04980   -0.50468   -1.32474
 77 O     0.10980    0.12708    0.00595
 78 O     0.18049   -0.02645   -0.04481
 79 O    -0.83413   -0.05559   -0.08307
 80 O    -0.64250   -0.01931   -0.07658
 81 O     0.01586    0.17996   -0.71465
 82 O     0.22401    0.27679   -0.87686
 83 O     0.00269    0.00030    0.00443
 84 O     0.05928    0.03577    0.10569
 85 Ti   -0.00342   -0.00154   -0.03897
 86 Ti    0.00287   -0.00307    0.02189
 87 Ti   -0.00401    0.00533    0.00148
 88 Ti    0.34561   -0.09552    0.26760
 89 O     0.00869   -0.02162    0.00969
 90 O    -0.03258   -0.00380   -0.04656
 91 O     0.01165    0.00262   -0.00574
 92 O     0.22478   -0.02936    0.08245
 93 O     0.02475   -0.02166   -0.10519
 94 O     0.00171   -0.00879    0.00156
 95 V    -1.37867   -0.39218    0.81326
 96 O    -0.18317   -0.02134    0.06699
 97 O     0.09168    0.42370   -0.10910
 98 O    -0.25046   -0.14292   -0.25079
 99 V    -1.37218   -0.18640    0.57778
100 O    -0.66317   -0.01195   -0.43756
101 O    -0.38395   -0.21542   -0.01493
102 O     0.32870    0.12219    0.40390
103 H     0.04262   -0.00207    0.07198
104 H     0.01049   -0.01149   -0.02327

System changes: positions 

Initializing position-dependent things.

Density initialized from wave functions
          .------------------------.  
         /|                        |  
        / |                        |  
       /  |                        |  
      /   |                        |  
     /    |                        |  
    /     |                        |  
   /      |                        |  
  /       |                        |  
 *        |                        |  
 |        |                        |  
 |        |                        |  
 |        |                    O   |  
 |        O    H  O         O      |  
 |        |   Oi      O   H O V    |  
 |      O |   O V  O      Oi     Ti|  
 |        | TO     Oi     O   O    |  
 |    O   |      O     OTi    TiO  |  
 |        TiO     O    O    O      |  
 |        OTi   TiO  O TiO  Tii    |  
 |  O  O  |O  TiTi   Ti    O  O  O |  
 |      Tii  O OO   OOO   O        |  
 |      OO| O     OTii    Tii      |  
 |   O Ti | Tii     O   OO     O   |  
 |    O   |O     OOTi    Oi        |  
 |  Ti    |Oi  O  O    O     O     |  
 |  O    O|     Ti    Ti           |  
 |       Ti         O      O       |  
 |        |  O                     |  
 |        .------------------------.  
 |       /                        /   
 |      /                        /    
 |     /                        /     
 |    /                        /      
 |   /                        /       
 |  /                        /        
 | /                        /         
 |/                        /          
 *------------------------*           

Positions:
   0 O      9.985175    2.817512    7.418325    ( 0.0000,  0.0000,  0.0000)
   1 O      4.783264    0.944026    7.429735    ( 0.0000,  0.0000,  0.0000)
   2 Ti     2.996728    0.947334    8.325345    ( 0.0000,  0.0000,  0.0000)
   3 Ti     8.219380    2.762325    8.290231    ( 0.0000,  0.0000,  0.0000)
   4 Ti     0.657013    2.834279    8.996630    ( 0.0000,  0.0000,  0.0000)
   5 Ti     5.869204    0.907478    8.959613    ( 0.0000,  0.0000,  0.0000)
   6 O      1.103363    0.956808    8.933081    ( 0.0000,  0.0000,  0.0000)
   7 O      6.329588    2.829609    8.956631    ( 0.0000,  0.0000,  0.0000)
   8 O      9.244581    2.827586    9.849813    ( 0.0000,  0.0000,  0.0000)
   9 O      4.076120    0.928629    9.858025    ( 0.0000,  0.0000,  0.0000)
  10 O      7.779315    0.904056    8.349312    ( 0.0000,  0.0000,  0.0000)
  11 O      2.595771    2.888574    8.400027    ( 0.0000,  0.0000,  0.0000)
  12 O      1.092764    2.869801   11.029407    ( 0.0000,  0.0000,  0.0000)
  13 O      6.275773    0.918627   10.977335    ( 0.0000,  0.0000,  0.0000)
  14 Ti     4.408767    0.941805   11.950323    ( 0.0000,  0.0000,  0.0000)
  15 Ti     9.591653    2.840008   11.969258    ( 0.0000,  0.0000,  0.0000)
  16 Ti     2.026014    2.835014   12.550924    ( 0.0000,  0.0000,  0.0000)
  17 Ti     7.208176    0.948663   12.490491    ( 0.0000,  0.0000,  0.0000)
  18 O      2.570120    0.963197   12.758212    ( 0.0000,  0.0000,  0.0000)
  19 O      7.699652    2.877929   12.644505    ( 0.0000,  0.0000,  0.0000)
  20 O      0.383343    2.853760   13.406794    ( 0.0000,  0.0000,  0.0000)
  21 O      5.579015    1.002315   13.366640    ( 0.0000,  0.0000,  0.0000)
  22 O      9.186548    0.955430   11.982835    ( 0.0000,  0.0000,  0.0000)
  23 O      3.979645    2.906602   11.869971    ( 0.0000,  0.0000,  0.0000)
  24 O      9.991278    6.701856    7.416697    ( 0.0000,  0.0000,  0.0000)
  25 O      4.640266    4.766143    7.909177    ( 0.0000,  0.0000,  0.0000)
  26 Ti     2.785188    4.773225    7.999495    ( 0.0000,  0.0000,  0.0000)
  27 Ti     8.229211    6.736926    8.289676    ( 0.0000,  0.0000,  0.0000)
  28 Ti     0.713114    6.678008    9.182537    ( 0.0000,  0.0000,  0.0000)
  29 Ti     6.097007    4.748224    9.019115    ( 0.0000,  0.0000,  0.0000)
  30 O      1.068649    4.768040    8.949376    ( 0.0000,  0.0000,  0.0000)
  31 O      6.345333    6.683354    8.967611    ( 0.0000,  0.0000,  0.0000)
  32 O      9.250078    6.673119    9.846712    ( 0.0000,  0.0000,  0.0000)
  33 O      7.808095    4.756638    8.258519    ( 0.0000,  0.0000,  0.0000)
  34 O      2.604899    6.643057    8.416669    ( 0.0000,  0.0000,  0.0000)
  35 O      1.071138    6.587562   11.131516    ( 0.0000,  0.0000,  0.0000)
  36 O      6.013946    4.755054   10.980336    ( 0.0000,  0.0000,  0.0000)
  37 Ti     4.391147    4.732062   12.282586    ( 0.0000,  0.0000,  0.0000)
  38 Ti     9.640423    6.668163   11.944844    ( 0.0000,  0.0000,  0.0000)
  39 Ti     2.062441    6.652526   12.913623    ( 0.0000,  0.0000,  0.0000)
  40 Ti     7.223233    4.768211   12.415786    ( 0.0000,  0.0000,  0.0000)
  41 O      2.553133    4.711821   12.975248    ( 0.0000,  0.0000,  0.0000)
  42 O      7.670797    6.631471   12.755671    ( 0.0000,  0.0000,  0.0000)
  43 O      0.328216    6.691568   13.493664    ( 0.0000,  0.0000,  0.0000)
  44 O      5.688538    4.741100   13.512520    ( 0.0000,  0.0000,  0.0000)
  45 O      9.137268    4.772325   11.878897    ( 0.0000,  0.0000,  0.0000)
  46 O      3.964711    6.557582   11.814820    ( 0.0000,  0.0000,  0.0000)
  47 O      9.986778   10.513690    7.368738    ( 0.0000,  0.0000,  0.0000)
  48 O      4.837462    8.581566    7.404937    ( 0.0000,  0.0000,  0.0000)
  49 Ti     2.951323    8.588260    8.230297    ( 0.0000,  0.0000,  0.0000)
  50 Ti     8.135229   10.562779    8.208054    ( 0.0000,  0.0000,  0.0000)
  51 Ti     0.703342   10.528005    9.039919    ( 0.0000,  0.0000,  0.0000)
  52 Ti     5.913467    8.584452    8.939847    ( 0.0000,  0.0000,  0.0000)
  53 O      1.126777    8.573547    8.964116    ( 0.0000,  0.0000,  0.0000)
  54 O      6.301630   10.503252    8.965499    ( 0.0000,  0.0000,  0.0000)
  55 O      9.257931   10.435313    9.752852    ( 0.0000,  0.0000,  0.0000)
  56 O      4.081221    8.578441    9.762693    ( 0.0000,  0.0000,  0.0000)
  57 O      7.788076    8.609499    8.329822    ( 0.0000,  0.0000,  0.0000)
  58 O      2.604964   10.485475    8.378379    ( 0.0000,  0.0000,  0.0000)
  59 O      1.035202   10.546562   11.083473    ( 0.0000,  0.0000,  0.0000)
  60 O      6.204483    8.493087   11.075796    ( 0.0000,  0.0000,  0.0000)
  61 Ti     4.272805    8.442839   11.653302    ( 0.0000,  0.0000,  0.0000)
  62 Ti     9.448717   10.576484   11.683836    ( 0.0000,  0.0000,  0.0000)
  63 Ti     2.158584   10.550013   12.571976    ( 0.0000,  0.0000,  0.0000)
  64 Ti     7.278332    8.540099   12.573287    ( 0.0000,  0.0000,  0.0000)
  65 O      2.510801    8.566578   12.459286    ( 0.0000,  0.0000,  0.0000)
  66 O      7.660808   10.481347   12.449419    ( 0.0000,  0.0000,  0.0000)
  67 O      0.135987   10.491612   13.423957    ( 0.0000,  0.0000,  0.0000)
  68 O      5.317226    8.547183   13.409414    ( 0.0000,  0.0000,  0.0000)
  69 O      9.076952    8.532426   11.864733    ( 0.0000,  0.0000,  0.0000)
  70 O      3.918303   10.520128   11.854800    ( 0.0000,  0.0000,  0.0000)
  71 O      9.957030   14.309259    7.417550    ( 0.0000,  0.0000,  0.0000)
  72 O      4.798233   12.398394    7.474657    ( 0.0000,  0.0000,  0.0000)
  73 Ti     3.057499   12.413847    8.312568    ( 0.0000,  0.0000,  0.0000)
  74 Ti     8.179529   14.346737    8.308888    ( 0.0000,  0.0000,  0.0000)
  75 Ti     0.684192   14.303754    8.970902    ( 0.0000,  0.0000,  0.0000)
  76 Ti     5.883075   12.439503    9.140100    ( 0.0000,  0.0000,  0.0000)
  77 O      1.099276   12.399258    8.928075    ( 0.0000,  0.0000,  0.0000)
  78 O      6.275489   14.321207    8.946084    ( 0.0000,  0.0000,  0.0000)
  79 O      9.256793   14.385324    9.842472    ( 0.0000,  0.0000,  0.0000)
  80 O      4.056595   12.445376    9.891928    ( 0.0000,  0.0000,  0.0000)
  81 O      7.783982   12.420145    8.403254    ( 0.0000,  0.0000,  0.0000)
  82 O      2.592515   14.315095    8.372199    ( 0.0000,  0.0000,  0.0000)
  83 O      1.113292   14.334234   10.990532    ( 0.0000,  0.0000,  0.0000)
  84 O      6.238931   12.453690   11.105885    ( 0.0000,  0.0000,  0.0000)
  85 Ti     4.487637   12.425094   11.944567    ( 0.0000,  0.0000,  0.0000)
  86 Ti     9.579379   14.325891   11.946313    ( 0.0000,  0.0000,  0.0000)
  87 Ti     2.034869   14.321977   12.511607    ( 0.0000,  0.0000,  0.0000)
  88 Ti     7.261973   12.436545   12.870874    ( 0.0000,  0.0000,  0.0000)
  89 O      2.513113   12.423009   12.776940    ( 0.0000,  0.0000,  0.0000)
  90 O      7.727350   14.346480   12.760367    ( 0.0000,  0.0000,  0.0000)
  91 O      0.404066   14.317919   13.373106    ( 0.0000,  0.0000,  0.0000)
  92 O      5.535205   12.363228   13.483519    ( 0.0000,  0.0000,  0.0000)
  93 O      9.167069   12.427796   11.826197    ( 0.0000,  0.0000,  0.0000)
  94 O      4.022265   14.328862   12.010801    ( 0.0000,  0.0000,  0.0000)
  95 V      4.115592    8.516550   14.745765    ( 0.0000,  0.0000,  0.0000)
  96 O      3.070657   10.089034   14.539137    ( 0.0000,  0.0000,  0.0000)
  97 O      3.140807    7.082945   14.530669    ( 0.0000,  0.0000,  0.0000)
  98 O      4.916435    8.584402   16.128914    ( 0.0000,  0.0000,  0.0000)
  99 V      9.264142   10.650393   14.742726    ( 0.0000,  0.0000,  0.0000)
 100 O      8.381312   12.121420   14.491952    ( 0.0000,  0.0000,  0.0000)
 101 O      8.196252    9.103771   14.575515    ( 0.0000,  0.0000,  0.0000)
 102 O      9.979681   10.629102   16.170787    ( 0.0000,  0.0000,  0.0000)
 103 H      8.133940    8.507130   15.341970    ( 0.0000,  0.0000,  0.0000)
 104 H      3.088724   10.750709   15.255317    ( 0.0000,  0.0000,  0.0000)

Unit cell:
           periodic     x           y           z      points  spacing
  1. axis:    yes   10.341746    0.000000    0.000000    54     0.1915
  2. axis:    yes   -0.000000   15.289380    0.000000    80     0.1911
  3. axis:    yes    0.000000    0.000000   23.497201   125     0.1880

  Lengths:  10.341746  15.289380  23.497201
  Angles:   90.000000  90.000000  90.000000

Effective grid spacing dv^(1/3) = 0.1902

                     log10-error:    total        iterations:
           time      wfs    density  energy       fermi  poisson
iter:   1  16:34:48  -2.33   +inf  -859.552973    4             
iter:   2  16:35:17  -3.29  -3.00  -859.546198    3             
iter:   3  16:35:47  -3.82  -3.05  -859.518516    3             
iter:   4  16:36:17  -3.04  -3.14  -859.499587    3             
iter:   5  16:36:46  -4.37  -3.30  -859.498137    3             
iter:   6  16:37:16  -4.81  -3.40  -859.495881    2             
iter:   7  16:37:50  -4.02  -3.45  -859.495181    3             
iter:   8  16:38:20  -4.69  -3.61  -859.492520    3             
iter:   9  16:38:49  -5.17  -3.87  -859.492309    2             
iter:  10  16:39:19  -5.45  -3.98  -859.491856    2             
iter:  11  16:39:48  -5.89  -4.11  -859.492171    2             
iter:  12  16:40:18  -6.17  -4.20  -859.491932    2             
iter:  13  16:40:47  -6.63  -4.34  -859.492127    2             
iter:  14  16:41:17  -6.61  -4.41  -859.492032    2             
iter:  15  16:41:46  -7.27  -4.51  -859.492081    2             
iter:  16  16:42:16  -6.92  -4.60  -859.492006    2             
iter:  17  16:42:45  -7.44  -4.78  -859.492124    2             

Converged after 17 iterations.

Dipole moment: (6.655376, -3.164452, -0.750981) |e|*Ang

Energy contributions relative to reference atoms: (reference = -935653.237240)

Kinetic:       +609.415300
Potential:     -778.729954
External:        +0.000000
XC:            -696.321296
Entropy (-ST):   -0.525083
Local:           +6.406369
--------------------------
Free energy:   -859.754665
Extrapolated:  -859.492124

Fermi level: -1.23657

Showing all kpts
 Kpt  Band  Eigenvalues  Occupancy
  0   411     -3.36054    1.00000
  0   412     -1.18780    0.38043
  0   413     -1.13692    0.26963
  0   414     -1.07363    0.16391

  1   411     -3.36053    1.00000
  1   412     -1.18343    0.37019
  1   413     -1.14100    0.27774
  1   414     -1.07845    0.17062



Forces in eV/Ang:
  0 O    -1.40735   -0.07134    1.17744
  1 O    -1.03184    0.01000    1.28610
  2 Ti    2.53613   -0.06829    1.27863
  3 Ti    2.44027    0.65472    0.93834
  4 Ti   -0.29039    0.10621   -1.10140
  5 Ti   -1.71392    0.28585   -1.02618
  6 O     0.27314   -0.17989   -0.11349
  7 O     0.28216    0.08128   -0.10271
  8 O    -0.95388   -0.05913   -0.28120
  9 O    -0.70925    0.02579   -0.24562
 10 O     0.11650    0.51275   -1.09749
 11 O     0.16604   -0.18707   -0.71551
 12 O    -0.00249   -0.00106    0.00139
 13 O     0.00037   -0.00186   -0.00124
 14 Ti    0.00230   -0.00612   -0.00141
 15 Ti   -0.00531    0.00606   -0.00600
 16 Ti   -0.00418   -0.01012   -0.00260
 17 Ti    0.00207   -0.01597   -0.00163
 18 O     0.00070    0.00841   -0.00642
 19 O     0.00030    0.00193   -0.00232
 20 O    -0.00495   -0.00083    0.00260
 21 O    -0.00491    0.00233    0.00197
 22 O    -0.00173    0.00224   -0.00260
 23 O    -0.00337    0.01012    0.00707
 24 O    -1.66091   -0.00318    1.98040
 25 O    -0.29039   -0.02042    0.27177
 26 Ti    0.47446    0.08026    0.47242
 27 Ti    3.77138   -0.03642    0.19184
 28 Ti   -0.80083   -0.00530   -1.85104
 29 Ti   -0.73606    0.23346   -0.06127
 30 O     0.13342   -0.15318    0.05154
 31 O    -0.02967   -0.34531   -0.00821
 32 O    -0.97436    0.02395    0.32485
 33 O     0.05115   -0.27391   -0.73019
 34 O     0.20421    0.16386   -0.74160
 35 O     0.03513   -0.00276    0.07610
 36 O    -0.00124    0.00717    0.00468
 37 Ti    0.00249   -0.00865    0.00400
 38 Ti    0.06289   -0.01303   -0.00356
 39 Ti    0.08332    0.11935    0.11071
 40 Ti    0.00799    0.03352    0.00378
 41 O    -0.00110    0.05487    0.02749
 42 O     0.03969    0.01364    0.02920
 43 O     0.16388    0.02173    0.05441
 44 O    -0.00013   -0.00773    0.01185
 45 O     0.00094    0.00859    0.00453
 46 O    -0.01578   -0.00868   -0.00194
 47 O    -1.37771    0.08597    1.98747
 48 O    -1.02143   -0.05160    1.26033
 49 Ti    2.59056   -0.04086    1.04684
 50 Ti    3.35905   -0.42530    0.60626
 51 Ti   -0.77192   -0.08490   -2.36859
 52 Ti   -1.30536    0.11737   -1.24041
 53 O     0.26540    0.08316    0.12626
 54 O     0.09559    0.14588    0.06574
 55 O    -1.20105    0.14879    0.56997
 56 O    -0.91879    0.01832    0.15316
 57 O     0.11678    0.06469   -1.03920
 58 O     0.24291   -0.01220   -0.81214
 59 O     0.08207    0.01159   -0.11914
 60 O     0.10617    0.00720   -0.06855
 61 Ti    0.06147    0.04958    0.02831
 62 Ti    0.08039    0.00243   -0.02197
 63 Ti   -0.04363   -0.04066   -0.02084
 64 Ti   -0.02477    0.07389   -0.10531
 65 O    -0.05924   -0.03403   -0.03753
 66 O    -0.01673    0.15635    0.03685
 67 O     0.39384    0.08304   -0.02373
 68 O     0.27660   -0.02073   -0.01347
 69 O     0.07866    0.03252   -0.05723
 70 O     0.08048   -0.01741   -0.07580
 71 O    -1.23886    0.04192    1.31316
 72 O    -1.36047    0.05801    1.60066
 73 Ti    2.77301   -0.05251    0.89033
 74 Ti    3.14485   -0.89177    1.00234
 75 Ti   -0.95468   -0.06203   -1.41937
 76 Ti   -1.03677   -0.50712   -1.27072
 77 O     0.11091    0.13398   -0.00030
 78 O     0.18130   -0.02031   -0.04869
 79 O    -0.83351   -0.05420   -0.08541
 80 O    -0.64187   -0.01724   -0.07800
 81 O     0.01774    0.17946   -0.71766
 82 O     0.22469    0.27922   -0.87814
 83 O    -0.00251    0.00359   -0.00072
 84 O     0.02427    0.03307    0.03374
 85 Ti    0.08015   -0.01536    0.01609
 86 Ti   -0.00046    0.00439    0.00433
 87 Ti    0.01876   -0.03346    0.00046
 88 Ti    0.08141   -0.01774    0.06249
 89 O     0.03636   -0.00478    0.00143
 90 O    -0.00235    0.01132   -0.03248
 91 O    -0.00479    0.00305    0.00594
 92 O     0.19822   -0.02524    0.04466
 93 O     0.01502    0.01288   -0.07752
 94 O     0.00062    0.00918    0.00160
 95 V    -0.13446    0.12928    0.07684
 96 O    -0.21994   -0.07553    0.04544
 97 O    -0.14698   -0.02068    0.02452
 98 O    -0.37624   -0.18568   -0.20090
 99 V    -0.02196   -0.17255    0.35041
100 O    -0.48138   -0.11196   -0.17178
101 O    -0.33317   -0.13152    0.00322
102 O    -0.16497    0.13160   -0.28596
103 H     0.01533   -0.10715    0.13781
104 H     0.01196    0.05746    0.02534

System changes: positions 

Initializing position-dependent things.

Density initialized from wave functions
          .------------------------.  
         /|                        |  
        / |                        |  
       /  |                        |  
      /   |                        |  
     /    |                        |  
    /     |                        |  
   /      |                        |  
  /       |                        |  
 *        |                        |  
 |        |                        |  
 |        |                        |  
 |        |                    O   |  
 |        O    H  O         O      |  
 |        |   Oi      O   H O V    |  
 |      O |   O V  O      Oi     Ti|  
 |        | TO     Oi     O   O    |  
 |    O   |      O     OTi    TiO  |  
 |        TiO     O    O    O      |  
 |        OTi   TiO  O TiO  Tii    |  
 |  O  O  |O  TiTi   Ti    O  O  O |  
 |      Tii  O OO   OOO   O        |  
 |      OO| O     OTii    Tii      |  
 |   O Ti | Tii     O   OO     O   |  
 |    O   |O     OOTi    Oi        |  
 |  Ti    |Oi  O  O    O     O     |  
 |  O    O|     Ti    Ti           |  
 |       Ti         O      O       |  
 |        |  O                     |  
 |        .------------------------.  
 |       /                        /   
 |      /                        /    
 |     /                        /     
 |    /                        /      
 |   /                        /       
 |  /                        /        
 | /                        /         
 |/                        /          
 *------------------------*           

Positions:
   0 O      9.985175    2.817512    7.418325    ( 0.0000,  0.0000,  0.0000)
   1 O      4.783264    0.944026    7.429735    ( 0.0000,  0.0000,  0.0000)
   2 Ti     2.996728    0.947334    8.325345    ( 0.0000,  0.0000,  0.0000)
   3 Ti     8.219380    2.762325    8.290231    ( 0.0000,  0.0000,  0.0000)
   4 Ti     0.657013    2.834279    8.996630    ( 0.0000,  0.0000,  0.0000)
   5 Ti     5.869204    0.907478    8.959613    ( 0.0000,  0.0000,  0.0000)
   6 O      1.103363    0.956808    8.933081    ( 0.0000,  0.0000,  0.0000)
   7 O      6.329588    2.829609    8.956631    ( 0.0000,  0.0000,  0.0000)
   8 O      9.244581    2.827586    9.849813    ( 0.0000,  0.0000,  0.0000)
   9 O      4.076120    0.928629    9.858025    ( 0.0000,  0.0000,  0.0000)
  10 O      7.779315    0.904056    8.349312    ( 0.0000,  0.0000,  0.0000)
  11 O      2.595771    2.888574    8.400027    ( 0.0000,  0.0000,  0.0000)
  12 O      1.092720    2.869777   11.029469    ( 0.0000,  0.0000,  0.0000)
  13 O      6.275803    0.918573   10.977348    ( 0.0000,  0.0000,  0.0000)
  14 Ti     4.408818    0.941723   11.950269    ( 0.0000,  0.0000,  0.0000)
  15 Ti     9.591548    2.840153   11.969111    ( 0.0000,  0.0000,  0.0000)
  16 Ti     2.025907    2.834806   12.550837    ( 0.0000,  0.0000,  0.0000)
  17 Ti     7.208201    0.948355   12.490426    ( 0.0000,  0.0000,  0.0000)
  18 O      2.570138    0.963355   12.758063    ( 0.0000,  0.0000,  0.0000)
  19 O      7.699654    2.877961   12.644448    ( 0.0000,  0.0000,  0.0000)
  20 O      0.383226    2.853741   13.406850    ( 0.0000,  0.0000,  0.0000)
  21 O      5.578906    1.002355   13.366690    ( 0.0000,  0.0000,  0.0000)
  22 O      9.186502    0.955463   11.982775    ( 0.0000,  0.0000,  0.0000)
  23 O      3.979574    2.906794   11.870117    ( 0.0000,  0.0000,  0.0000)
  24 O      9.991278    6.701856    7.416697    ( 0.0000,  0.0000,  0.0000)
  25 O      4.640266    4.766143    7.909177    ( 0.0000,  0.0000,  0.0000)
  26 Ti     2.785188    4.773225    7.999495    ( 0.0000,  0.0000,  0.0000)
  27 Ti     8.229211    6.736926    8.289676    ( 0.0000,  0.0000,  0.0000)
  28 Ti     0.713114    6.678008    9.182537    ( 0.0000,  0.0000,  0.0000)
  29 Ti     6.097007    4.748224    9.019115    ( 0.0000,  0.0000,  0.0000)
  30 O      1.068649    4.768040    8.949376    ( 0.0000,  0.0000,  0.0000)
  31 O      6.345333    6.683354    8.967611    ( 0.0000,  0.0000,  0.0000)
  32 O      9.250078    6.673119    9.846712    ( 0.0000,  0.0000,  0.0000)
  33 O      7.808095    4.756638    8.258519    ( 0.0000,  0.0000,  0.0000)
  34 O      2.604899    6.643057    8.416669    ( 0.0000,  0.0000,  0.0000)
  35 O      1.071903    6.587486   11.133192    ( 0.0000,  0.0000,  0.0000)
  36 O      6.013936    4.755217   10.980442    ( 0.0000,  0.0000,  0.0000)
  37 Ti     4.391161    4.731966   12.282734    ( 0.0000,  0.0000,  0.0000)
  38 Ti     9.641708    6.667914   11.944782    ( 0.0000,  0.0000,  0.0000)
  39 Ti     2.065150    6.655591   12.916962    ( 0.0000,  0.0000,  0.0000)
  40 Ti     7.223360    4.768810   12.415854    ( 0.0000,  0.0000,  0.0000)
  41 O      2.553054    4.712876   12.975758    ( 0.0000,  0.0000,  0.0000)
  42 O      7.671550    6.631892   12.756359    ( 0.0000,  0.0000,  0.0000)
  43 O      0.331613    6.692005   13.494802    ( 0.0000,  0.0000,  0.0000)
  44 O      5.688589    4.740930   13.512764    ( 0.0000,  0.0000,  0.0000)
  45 O      9.137279    4.772525   11.878990    ( 0.0000,  0.0000,  0.0000)
  46 O      3.964498    6.557417   11.814643    ( 0.0000,  0.0000,  0.0000)
  47 O      9.986778   10.513690    7.368738    ( 0.0000,  0.0000,  0.0000)
  48 O      4.837462    8.581566    7.404937    ( 0.0000,  0.0000,  0.0000)
  49 Ti     2.951323    8.588260    8.230297    ( 0.0000,  0.0000,  0.0000)
  50 Ti     8.135229   10.562779    8.208054    ( 0.0000,  0.0000,  0.0000)
  51 Ti     0.703342   10.528005    9.039919    ( 0.0000,  0.0000,  0.0000)
  52 Ti     5.913467    8.584452    8.939847    ( 0.0000,  0.0000,  0.0000)
  53 O      1.126777    8.573547    8.964116    ( 0.0000,  0.0000,  0.0000)
  54 O      6.301630   10.503252    8.965499    ( 0.0000,  0.0000,  0.0000)
  55 O      9.257931   10.435313    9.752852    ( 0.0000,  0.0000,  0.0000)
  56 O      4.081221    8.578441    9.762693    ( 0.0000,  0.0000,  0.0000)
  57 O      7.788076    8.609499    8.329822    ( 0.0000,  0.0000,  0.0000)
  58 O      2.604964   10.485475    8.378379    ( 0.0000,  0.0000,  0.0000)
  59 O      1.036972   10.546840   11.081115    ( 0.0000,  0.0000,  0.0000)
  60 O      6.206831    8.493230   11.074601    ( 0.0000,  0.0000,  0.0000)
  61 Ti     4.273237    8.443770   11.653473    ( 0.0000,  0.0000,  0.0000)
  62 Ti     9.449928   10.576549   11.683102    ( 0.0000,  0.0000,  0.0000)
  63 Ti     2.158128   10.548661   12.571615    ( 0.0000,  0.0000,  0.0000)
  64 Ti     7.278693    8.542040   12.571126    ( 0.0000,  0.0000,  0.0000)
  65 O      2.509453    8.565983   12.458236    ( 0.0000,  0.0000,  0.0000)
  66 O      7.660173   10.485021   12.450135    ( 0.0000,  0.0000,  0.0000)
  67 O      0.147549   10.493250   13.421200    ( 0.0000,  0.0000,  0.0000)
  68 O      5.325646    8.546849   13.407592    ( 0.0000,  0.0000,  0.0000)
  69 O      9.078544    8.533074   11.863454    ( 0.0000,  0.0000,  0.0000)
  70 O      3.920039   10.519804   11.853093    ( 0.0000,  0.0000,  0.0000)
  71 O      9.957030   14.309259    7.417550    ( 0.0000,  0.0000,  0.0000)
  72 O      4.798233   12.398394    7.474657    ( 0.0000,  0.0000,  0.0000)
  73 Ti     3.057499   12.413847    8.312568    ( 0.0000,  0.0000,  0.0000)
  74 Ti     8.179529   14.346737    8.308888    ( 0.0000,  0.0000,  0.0000)
  75 Ti     0.684192   14.303754    8.970902    ( 0.0000,  0.0000,  0.0000)
  76 Ti     5.883075   12.439503    9.140100    ( 0.0000,  0.0000,  0.0000)
  77 O      1.099276   12.399258    8.928075    ( 0.0000,  0.0000,  0.0000)
  78 O      6.275489   14.321207    8.946084    ( 0.0000,  0.0000,  0.0000)
  79 O      9.256793   14.385324    9.842472    ( 0.0000,  0.0000,  0.0000)
  80 O      4.056595   12.445376    9.891928    ( 0.0000,  0.0000,  0.0000)
  81 O      7.783982   12.420145    8.403254    ( 0.0000,  0.0000,  0.0000)
  82 O      2.592515   14.315095    8.372199    ( 0.0000,  0.0000,  0.0000)
  83 O      1.113258   14.334303   10.990545    ( 0.0000,  0.0000,  0.0000)
  84 O      6.239607   12.454431   11.106920    ( 0.0000,  0.0000,  0.0000)
  85 Ti     4.489078   12.424790   11.944690    ( 0.0000,  0.0000,  0.0000)
  86 Ti     9.579389   14.325950   11.946446    ( 0.0000,  0.0000,  0.0000)
  87 Ti     2.035208   14.321372   12.511599    ( 0.0000,  0.0000,  0.0000)
  88 Ti     7.264670   12.435853   12.872895    ( 0.0000,  0.0000,  0.0000)
  89 O      2.513825   12.422877   12.777009    ( 0.0000,  0.0000,  0.0000)
  90 O      7.727183   14.346651   12.759616    ( 0.0000,  0.0000,  0.0000)
  91 O      0.404012   14.317985   13.373212    ( 0.0000,  0.0000,  0.0000)
  92 O      5.539701   12.362660   13.484665    ( 0.0000,  0.0000,  0.0000)
  93 O      9.167402   12.428001   11.824404    ( 0.0000,  0.0000,  0.0000)
  94 O      4.022281   14.329002   12.010836    ( 0.0000,  0.0000,  0.0000)
  95 V      4.108251    8.517483   14.748251    ( 0.0000,  0.0000,  0.0000)
  96 O      3.066007   10.087580   14.540392    ( 0.0000,  0.0000,  0.0000)
  97 O      3.138480    7.084129   14.530872    ( 0.0000,  0.0000,  0.0000)
  98 O      4.909052    8.580485   16.125290    ( 0.0000,  0.0000,  0.0000)
  99 V      9.259219   10.646367   14.749937    ( 0.0000,  0.0000,  0.0000)
 100 O      8.370042   12.119397   14.487308    ( 0.0000,  0.0000,  0.0000)
 101 O      8.188747    9.100587   14.575619    ( 0.0000,  0.0000,  0.0000)
 102 O      9.978034   10.631983   16.167561    ( 0.0000,  0.0000,  0.0000)
 103 H      8.134378    8.505156   15.344730    ( 0.0000,  0.0000,  0.0000)
 104 H      3.088968   10.751689   15.255621    ( 0.0000,  0.0000,  0.0000)

Unit cell:
           periodic     x           y           z      points  spacing
  1. axis:    yes   10.341746    0.000000    0.000000    54     0.1915
  2. axis:    yes   -0.000000   15.289380    0.000000    80     0.1911
  3. axis:    yes    0.000000    0.000000   23.497201   125     0.1880

  Lengths:  10.341746  15.289380  23.497201
  Angles:   90.000000  90.000000  90.000000

Effective grid spacing dv^(1/3) = 0.1902

                     log10-error:    total        iterations:
           time      wfs    density  energy       fermi  poisson
iter:   1  16:43:39  -3.10   +inf  -859.526720    3             
iter:   2  16:44:09  -4.04  -3.39  -859.527492    2             
iter:   3  16:44:38  -4.45  -3.45  -859.519383    3             
iter:   4  16:45:08  -3.84  -3.54  -859.518815    3             
iter:   5  16:45:37  -5.12  -3.70  -859.517933    3             
iter:   6  16:46:07  -5.14  -3.76  -859.516850    3             
iter:   7  16:46:37  -4.59  -3.84  -859.516931    3             
iter:   8  16:47:06  -5.12  -3.99  -859.516894    3             
iter:   9  16:47:36  -5.64  -4.16  -859.516590    3             
iter:  10  16:48:05  -6.35  -4.34  -859.516693    2             
iter:  11  16:48:35  -6.83  -4.43  -859.516447    2             
iter:  12  16:49:05  -6.82  -4.54  -859.516485    2             
iter:  13  16:49:34  -7.11  -4.61  -859.516525    2             
iter:  14  16:50:04  -7.71  -4.72  -859.516531    2             

Converged after 14 iterations.

Dipole moment: (6.245498, -3.167249, -0.696342) |e|*Ang

Energy contributions relative to reference atoms: (reference = -935653.237240)

Kinetic:       +609.134066
Potential:     -778.533231
External:        +0.000000
XC:            -696.257409
Entropy (-ST):   -0.527277
Local:           +6.403680
--------------------------
Free energy:   -859.780170
Extrapolated:  -859.516531

Fermi level: -1.22395

Showing all kpts
 Kpt  Band  Eigenvalues  Occupancy
  0   411     -3.34778    1.00000
  0   412     -1.17490    0.37979
  0   413     -1.12382    0.26869
  0   414     -1.05971    0.16214

  1   411     -3.34778    1.00000
  1   412     -1.17061    0.36973
  1   413     -1.12767    0.27633
  1   414     -1.06481    0.16920



Forces in eV/Ang:
  0 O    -1.40760   -0.07122    1.17624
  1 O    -1.03220    0.01036    1.28467
  2 Ti    2.53555   -0.06904    1.27987
  3 Ti    2.43980    0.65454    0.93925
  4 Ti   -0.28924    0.10651   -1.10045
  5 Ti   -1.71301    0.28367   -1.02430
  6 O     0.27387   -0.17843   -0.11437
  7 O     0.28242    0.08142   -0.10321
  8 O    -0.95384   -0.05848   -0.28173
  9 O    -0.70925    0.02653   -0.24642
 10 O     0.11635    0.51407   -1.09855
 11 O     0.16611   -0.18768   -0.71615
 12 O    -0.00340   -0.00101   -0.00241
 13 O    -0.00228   -0.00060   -0.00437
 14 Ti    0.00249   -0.00703   -0.00008
 15 Ti   -0.00736    0.00259   -0.00235
 16 Ti    0.00133    0.00782    0.00254
 17 Ti    0.00531   -0.01936   -0.00147
 18 O     0.00046    0.00592   -0.00435
 19 O     0.00222    0.00494   -0.00198
 20 O    -0.00483   -0.00092    0.00134
 21 O    -0.00471    0.00220    0.00167
 22 O    -0.00029    0.00800   -0.00320
 23 O    -0.00509    0.00768    0.00576
 24 O    -1.65978   -0.00350    1.97889
 25 O    -0.29011   -0.02064    0.27111
 26 Ti    0.47303    0.08147    0.47136
 27 Ti    3.77039   -0.03501    0.19421
 28 Ti   -0.79574   -0.00452   -1.82916
 29 Ti   -0.73606    0.23507   -0.05826
 30 O     0.13342   -0.15346    0.05108
 31 O    -0.02911   -0.34734   -0.01019
 32 O    -0.97078    0.02267    0.32816
 33 O     0.05123   -0.27441   -0.73120
 34 O     0.20375    0.16338   -0.74289
 35 O     0.01657   -0.00118    0.03910
 36 O     0.00100    0.00781    0.00269
 37 Ti   -0.00937   -0.00365    0.00474
 38 Ti    0.07857   -0.00283    0.01151
 39 Ti    0.04004    0.06169    0.04479
 40 Ti    0.00817    0.04611    0.00678
 41 O     0.00947    0.03821    0.02430
 42 O     0.04692    0.00968    0.01870
 43 O     0.12691    0.02848    0.05473
 44 O     0.00181   -0.00601    0.00958
 45 O     0.00504    0.00810    0.00422
 46 O    -0.00797    0.00751    0.00548
 47 O    -1.38313    0.08565    1.98283
 48 O    -1.02368   -0.05184    1.25581
 49 Ti    2.59000   -0.03967    1.04903
 50 Ti    3.35954   -0.42440    0.60658
 51 Ti   -0.76516   -0.08430   -2.37068
 52 Ti   -1.30230    0.11866   -1.24152
 53 O     0.26572    0.07926    0.12401
 54 O     0.09599    0.14623    0.06407
 55 O    -1.19927    0.14753    0.56932
 56 O    -0.91033    0.01637    0.15931
 57 O     0.11763    0.06407   -1.04107
 58 O     0.24411   -0.01332   -0.81542
 59 O     0.08221    0.01196   -0.12036
 60 O     0.08842    0.00696   -0.10036
 61 Ti    0.10737    0.05163    0.05539
 62 Ti    0.09755    0.00413    0.02508
 63 Ti   -0.07512   -0.00274   -0.04327
 64 Ti   -0.05599    0.05663   -0.10042
 65 O    -0.02492   -0.01024   -0.03063
 66 O     0.02962    0.07879    0.01745
 67 O     0.11668    0.09294    0.19968
 68 O     0.07068   -0.01854    0.11215
 69 O     0.08102    0.04410   -0.03726
 70 O     0.07660   -0.02639   -0.04587
 71 O    -1.23957    0.04230    1.31107
 72 O    -1.36140    0.05816    1.59777
 73 Ti    2.77400   -0.05386    0.89502
 74 Ti    3.14599   -0.89337    1.00588
 75 Ti   -0.95502   -0.06506   -1.41594
 76 Ti   -1.03349   -0.50746   -1.24741
 77 O     0.11159    0.13774   -0.00399
 78 O     0.18166   -0.01788   -0.05077
 79 O    -0.83367   -0.05211   -0.09033
 80 O    -0.64097   -0.01569   -0.07661
 81 O     0.01818    0.17922   -0.71955
 82 O     0.22509    0.28091   -0.87936
 83 O     0.00120    0.00294    0.00211
 84 O    -0.00396    0.03133   -0.01372
 85 Ti    0.10792   -0.02223    0.03599
 86 Ti   -0.00468    0.00197    0.00043
 87 Ti    0.01610   -0.04101   -0.00374
 88 Ti    0.03637    0.00261    0.00160
 89 O     0.04473   -0.01106    0.00155
 90 O     0.01207    0.03250   -0.03067
 91 O    -0.00280   -0.00294    0.00979
 92 O     0.12411   -0.02443    0.03300
 93 O     0.03048    0.01244   -0.06162
 94 O     0.00448    0.00732    0.00408
 95 V     0.00656    0.12834   -0.30612
 96 O    -0.20953   -0.00773    0.10014
 97 O    -0.14627   -0.05717    0.06363
 98 O    -0.26689   -0.15767    0.01822
 99 V    -0.02748   -0.06967   -0.32203
100 O    -0.30673   -0.23786   -0.02201
101 O    -0.24028   -0.09547    0.09452
102 O    -0.03887    0.13007    0.03144
103 H     0.00119   -0.10924    0.09127
104 H     0.00857    0.03279   -0.01894

System changes: positions 

Initializing position-dependent things.

Density initialized from wave functions
          .------------------------.  
         /|                        |  
        / |                        |  
       /  |                        |  
      /   |                        |  
     /    |                        |  
    /     |                        |  
   /      |                        |  
  /       |                        |  
 *        |                        |  
 |        |                        |  
 |        |                        |  
 |        |                    O   |  
 |        O    H  O         O      |  
 |        |   Oi      O   H O V    |  
 |      O |   O V  O      Oi     Ti|  
 |        | TO     Oi     O   O    |  
 |    O   |      O     OTi    TiO  |  
 |        TiO     O    O    O      |  
 |        OTi   TiO  O TiO  Tii    |  
 |  O  O  |O  TiTi   Ti    O  O  O |  
 |      Tii  O OO   OOO   O        |  
 |      OO| O     OTii    Tii      |  
 |   O Ti | Tii     O   OO     O   |  
 |    O   |O     OOTi    Oi        |  
 |  Ti    |Oi  O  O    O     O     |  
 |  O    O|     Ti    Ti           |  
 |       Ti         O      O       |  
 |        |  O                     |  
 |        .------------------------.  
 |       /                        /   
 |      /                        /    
 |     /                        /     
 |    /                        /      
 |   /                        /       
 |  /                        /        
 | /                        /         
 |/                        /          
 *------------------------*           

Positions:
   0 O      9.985175    2.817512    7.418325    ( 0.0000,  0.0000,  0.0000)
   1 O      4.783264    0.944026    7.429735    ( 0.0000,  0.0000,  0.0000)
   2 Ti     2.996728    0.947334    8.325345    ( 0.0000,  0.0000,  0.0000)
   3 Ti     8.219380    2.762325    8.290231    ( 0.0000,  0.0000,  0.0000)
   4 Ti     0.657013    2.834279    8.996630    ( 0.0000,  0.0000,  0.0000)
   5 Ti     5.869204    0.907478    8.959613    ( 0.0000,  0.0000,  0.0000)
   6 O      1.103363    0.956808    8.933081    ( 0.0000,  0.0000,  0.0000)
   7 O      6.329588    2.829609    8.956631    ( 0.0000,  0.0000,  0.0000)
   8 O      9.244581    2.827586    9.849813    ( 0.0000,  0.0000,  0.0000)
   9 O      4.076120    0.928629    9.858025    ( 0.0000,  0.0000,  0.0000)
  10 O      7.779315    0.904056    8.349312    ( 0.0000,  0.0000,  0.0000)
  11 O      2.595771    2.888574    8.400027    ( 0.0000,  0.0000,  0.0000)
  12 O      1.092601    2.869735   11.029453    ( 0.0000,  0.0000,  0.0000)
  13 O      6.275771    0.918514   10.977251    ( 0.0000,  0.0000,  0.0000)
  14 Ti     4.408919    0.941524   11.950241    ( 0.0000,  0.0000,  0.0000)
  15 Ti     9.591303    2.840316   11.968965    ( 0.0000,  0.0000,  0.0000)
  16 Ti     2.025859    2.834861   12.550854    ( 0.0000,  0.0000,  0.0000)
  17 Ti     7.208347    0.947668   12.490364    ( 0.0000,  0.0000,  0.0000)
  18 O      2.570170    0.963598   12.757840    ( 0.0000,  0.0000,  0.0000)
  19 O      7.699711    2.878106   12.644349    ( 0.0000,  0.0000,  0.0000)
  20 O      0.383015    2.853704   13.406904    ( 0.0000,  0.0000,  0.0000)
  21 O      5.578707    1.002430   13.366751    ( 0.0000,  0.0000,  0.0000)
  22 O      9.186459    0.955680   11.982651    ( 0.0000,  0.0000,  0.0000)
  23 O      3.979403    2.907102   11.870355    ( 0.0000,  0.0000,  0.0000)
  24 O      9.991278    6.701856    7.416697    ( 0.0000,  0.0000,  0.0000)
  25 O      4.640266    4.766143    7.909177    ( 0.0000,  0.0000,  0.0000)
  26 Ti     2.785188    4.773225    7.999495    ( 0.0000,  0.0000,  0.0000)
  27 Ti     8.229211    6.736926    8.289676    ( 0.0000,  0.0000,  0.0000)
  28 Ti     0.713114    6.678008    9.182537    ( 0.0000,  0.0000,  0.0000)
  29 Ti     6.097007    4.748224    9.019115    ( 0.0000,  0.0000,  0.0000)
  30 O      1.068649    4.768040    8.949376    ( 0.0000,  0.0000,  0.0000)
  31 O      6.345333    6.683354    8.967611    ( 0.0000,  0.0000,  0.0000)
  32 O      9.250078    6.673119    9.846712    ( 0.0000,  0.0000,  0.0000)
  33 O      7.808095    4.756638    8.258519    ( 0.0000,  0.0000,  0.0000)
  34 O      2.604899    6.643057    8.416669    ( 0.0000,  0.0000,  0.0000)
  35 O      1.072851    6.587401   11.135335    ( 0.0000,  0.0000,  0.0000)
  36 O      6.013960    4.755532   10.980576    ( 0.0000,  0.0000,  0.0000)
  37 Ti     4.390915    4.731834   12.283029    ( 0.0000,  0.0000,  0.0000)
  38 Ti     9.644502    6.667663   11.945058    ( 0.0000,  0.0000,  0.0000)
  39 Ti     2.068594    6.659505   12.921080    ( 0.0000,  0.0000,  0.0000)
  40 Ti     7.223617    4.770261   12.416089    ( 0.0000,  0.0000,  0.0000)
  41 O      2.553201    4.714478   12.976648    ( 0.0000,  0.0000,  0.0000)
  42 O      7.673143    6.632537   12.757328    ( 0.0000,  0.0000,  0.0000)
  43 O      0.337022    6.692991   13.496888    ( 0.0000,  0.0000,  0.0000)
  44 O      5.688704    4.740664   13.513134    ( 0.0000,  0.0000,  0.0000)
  45 O      9.137403    4.772879   11.879154    ( 0.0000,  0.0000,  0.0000)
  46 O      3.964253    6.557550   11.814564    ( 0.0000,  0.0000,  0.0000)
  47 O      9.986778   10.513690    7.368738    ( 0.0000,  0.0000,  0.0000)
  48 O      4.837462    8.581566    7.404937    ( 0.0000,  0.0000,  0.0000)
  49 Ti     2.951323    8.588260    8.230297    ( 0.0000,  0.0000,  0.0000)
  50 Ti     8.135229   10.562779    8.208054    ( 0.0000,  0.0000,  0.0000)
  51 Ti     0.703342   10.528005    9.039919    ( 0.0000,  0.0000,  0.0000)
  52 Ti     5.913467    8.584452    8.939847    ( 0.0000,  0.0000,  0.0000)
  53 O      1.126777    8.573547    8.964116    ( 0.0000,  0.0000,  0.0000)
  54 O      6.301630   10.503252    8.965499    ( 0.0000,  0.0000,  0.0000)
  55 O      9.257931   10.435313    9.752852    ( 0.0000,  0.0000,  0.0000)
  56 O      4.081221    8.578441    9.762693    ( 0.0000,  0.0000,  0.0000)
  57 O      7.788076    8.609499    8.329822    ( 0.0000,  0.0000,  0.0000)
  58 O      2.604964   10.485475    8.378379    ( 0.0000,  0.0000,  0.0000)
  59 O      1.040202   10.547338   11.076705    ( 0.0000,  0.0000,  0.0000)
  60 O      6.210643    8.493496   11.071542    ( 0.0000,  0.0000,  0.0000)
  61 Ti     4.275545    8.445587   11.654473    ( 0.0000,  0.0000,  0.0000)
  62 Ti     9.452757   10.576733   11.682885    ( 0.0000,  0.0000,  0.0000)
  63 Ti     2.156427   10.547399   12.570423    ( 0.0000,  0.0000,  0.0000)
[...]
 |        |                        |  
 |        |                    O   |  
 |        O   H  O          O      |  
 |        |   Oi      O  H  OV     |  
 |     O  |   O V  O      Oi     Ti|  
 |        | TO     Oi     O   O    |  
 |    O   |      O     OTi    TiO  |  
 |        TiO     O    O    O      |  
 |        OTi   TiO  O TiO  Tii    |  
 |  O  O  |O  TiTi   Ti    O  O  O |  
 |      Tii  O OO   OOO   O        |  
 |      OO| O     OTii    Tii      |  
 |   O Ti | Tii     O   OO     O   |  
 |    O   |O     OOTi    Oi        |  
 |  Ti    |Oi  O  O    O     O     |  
 |  O    O|     Ti    Ti           |  
 |       Ti         O      O       |  
 |        |  O                     |  
 |        .------------------------.  
 |       /                        /   
 |      /                        /    
 |     /                        /     
 |    /                        /      
 |   /                        /       
 |  /                        /        
 | /                        /         
 |/                        /          
 *------------------------*           

Positions:
   0 O      9.985175    2.817512    7.418325    ( 0.0000,  0.0000,  0.0000)
   1 O      4.783264    0.944026    7.429735    ( 0.0000,  0.0000,  0.0000)
   2 Ti     2.996728    0.947334    8.325345    ( 0.0000,  0.0000,  0.0000)
   3 Ti     8.219380    2.762325    8.290231    ( 0.0000,  0.0000,  0.0000)
   4 Ti     0.657013    2.834279    8.996630    ( 0.0000,  0.0000,  0.0000)
   5 Ti     5.869204    0.907478    8.959613    ( 0.0000,  0.0000,  0.0000)
   6 O      1.103363    0.956808    8.933081    ( 0.0000,  0.0000,  0.0000)
   7 O      6.329588    2.829609    8.956631    ( 0.0000,  0.0000,  0.0000)
   8 O      9.244581    2.827586    9.849813    ( 0.0000,  0.0000,  0.0000)
   9 O      4.076120    0.928629    9.858025    ( 0.0000,  0.0000,  0.0000)
  10 O      7.779315    0.904056    8.349312    ( 0.0000,  0.0000,  0.0000)
  11 O      2.595771    2.888574    8.400027    ( 0.0000,  0.0000,  0.0000)
  12 O      1.092757    2.869405   11.028940    ( 0.0000,  0.0000,  0.0000)
  13 O      6.276647    0.915545   10.977285    ( 0.0000,  0.0000,  0.0000)
  14 Ti     4.409206    0.941291   11.950090    ( 0.0000,  0.0000,  0.0000)
  15 Ti     9.590902    2.841728   11.968252    ( 0.0000,  0.0000,  0.0000)
  16 Ti     2.025743    2.833666   12.550281    ( 0.0000,  0.0000,  0.0000)
  17 Ti     7.209023    0.948034   12.490211    ( 0.0000,  0.0000,  0.0000)
  18 O      2.570334    0.962131   12.757102    ( 0.0000,  0.0000,  0.0000)
  19 O      7.699400    2.877966   12.642636    ( 0.0000,  0.0000,  0.0000)
  20 O      0.382615    2.853661   13.406161    ( 0.0000,  0.0000,  0.0000)
  21 O      5.579772    1.002021   13.366502    ( 0.0000,  0.0000,  0.0000)
  22 O      9.186944    0.955346   11.982536    ( 0.0000,  0.0000,  0.0000)
  23 O      3.980009    2.906096   11.871175    ( 0.0000,  0.0000,  0.0000)
  24 O      9.991278    6.701856    7.416697    ( 0.0000,  0.0000,  0.0000)
  25 O      4.640266    4.766143    7.909177    ( 0.0000,  0.0000,  0.0000)
  26 Ti     2.785188    4.773225    7.999495    ( 0.0000,  0.0000,  0.0000)
  27 Ti     8.229211    6.736926    8.289676    ( 0.0000,  0.0000,  0.0000)
  28 Ti     0.713114    6.678008    9.182537    ( 0.0000,  0.0000,  0.0000)
  29 Ti     6.097007    4.748224    9.019115    ( 0.0000,  0.0000,  0.0000)
  30 O      1.068649    4.768040    8.949376    ( 0.0000,  0.0000,  0.0000)
  31 O      6.345333    6.683354    8.967611    ( 0.0000,  0.0000,  0.0000)
  32 O      9.250078    6.673119    9.846712    ( 0.0000,  0.0000,  0.0000)
  33 O      7.808095    4.756638    8.258519    ( 0.0000,  0.0000,  0.0000)
  34 O      2.604899    6.643057    8.416669    ( 0.0000,  0.0000,  0.0000)
  35 O      1.071284    6.586387   11.129017    ( 0.0000,  0.0000,  0.0000)
  36 O      6.014488    4.756568   10.980989    ( 0.0000,  0.0000,  0.0000)
  37 Ti     4.392155    4.731825   12.283315    ( 0.0000,  0.0000,  0.0000)
  38 Ti     9.640536    6.669891   11.944833    ( 0.0000,  0.0000,  0.0000)
  39 Ti     2.052976    6.644901   12.897460    ( 0.0000,  0.0000,  0.0000)
  40 Ti     7.224156    4.770118   12.415500    ( 0.0000,  0.0000,  0.0000)
  41 O      2.552965    4.710717   12.974732    ( 0.0000,  0.0000,  0.0000)
  42 O      7.674904    6.630718   12.753696    ( 0.0000,  0.0000,  0.0000)
  43 O      0.327409    6.696098   13.492943    ( 0.0000,  0.0000,  0.0000)
  44 O      5.690005    4.742072   13.514007    ( 0.0000,  0.0000,  0.0000)
  45 O      9.138797    4.772565   11.879680    ( 0.0000,  0.0000,  0.0000)
  46 O      3.965393    6.555605   11.816860    ( 0.0000,  0.0000,  0.0000)
  47 O      9.986778   10.513690    7.368738    ( 0.0000,  0.0000,  0.0000)
  48 O      4.837462    8.581566    7.404937    ( 0.0000,  0.0000,  0.0000)
  49 Ti     2.951323    8.588260    8.230297    ( 0.0000,  0.0000,  0.0000)
  50 Ti     8.135229   10.562779    8.208054    ( 0.0000,  0.0000,  0.0000)
  51 Ti     0.703342   10.528005    9.039919    ( 0.0000,  0.0000,  0.0000)
  52 Ti     5.913467    8.584452    8.939847    ( 0.0000,  0.0000,  0.0000)
  53 O      1.126777    8.573547    8.964116    ( 0.0000,  0.0000,  0.0000)
  54 O      6.301630   10.503252    8.965499    ( 0.0000,  0.0000,  0.0000)
  55 O      9.257931   10.435313    9.752852    ( 0.0000,  0.0000,  0.0000)
  56 O      4.081221    8.578441    9.762693    ( 0.0000,  0.0000,  0.0000)
  57 O      7.788076    8.609499    8.329822    ( 0.0000,  0.0000,  0.0000)
  58 O      2.604964   10.485475    8.378379    ( 0.0000,  0.0000,  0.0000)
  59 O      1.035639   10.547288   11.081817    ( 0.0000,  0.0000,  0.0000)
  60 O      6.205582    8.494376   11.071742    ( 0.0000,  0.0000,  0.0000)
  61 Ti     4.283210    8.444774   11.659430    ( 0.0000,  0.0000,  0.0000)
  62 Ti     9.456810   10.578171   11.687330    ( 0.0000,  0.0000,  0.0000)
  63 Ti     2.152658   10.553888   12.571677    ( 0.0000,  0.0000,  0.0000)
  64 Ti     7.272341    8.536095   12.570738    ( 0.0000,  0.0000,  0.0000)
  65 O      2.514323    8.565005   12.458626    ( 0.0000,  0.0000,  0.0000)
  66 O      7.667234   10.474485   12.452757    ( 0.0000,  0.0000,  0.0000)
  67 O      0.097220   10.494893   13.453090    ( 0.0000,  0.0000,  0.0000)
  68 O      5.281009    8.542168   13.433997    ( 0.0000,  0.0000,  0.0000)
  69 O      9.080779    8.532726   11.862789    ( 0.0000,  0.0000,  0.0000)
  70 O      3.920837   10.518703   11.858259    ( 0.0000,  0.0000,  0.0000)
  71 O      9.957030   14.309259    7.417550    ( 0.0000,  0.0000,  0.0000)
  72 O      4.798233   12.398394    7.474657    ( 0.0000,  0.0000,  0.0000)
  73 Ti     3.057499   12.413847    8.312568    ( 0.0000,  0.0000,  0.0000)
  74 Ti     8.179529   14.346737    8.308888    ( 0.0000,  0.0000,  0.0000)
  75 Ti     0.684192   14.303754    8.970902    ( 0.0000,  0.0000,  0.0000)
  76 Ti     5.883075   12.439503    9.140100    ( 0.0000,  0.0000,  0.0000)
  77 O      1.099276   12.399258    8.928075    ( 0.0000,  0.0000,  0.0000)
  78 O      6.275489   14.321207    8.946084    ( 0.0000,  0.0000,  0.0000)
  79 O      9.256793   14.385324    9.842472    ( 0.0000,  0.0000,  0.0000)
  80 O      4.056595   12.445376    9.891928    ( 0.0000,  0.0000,  0.0000)
  81 O      7.783982   12.420145    8.403254    ( 0.0000,  0.0000,  0.0000)
  82 O      2.592515   14.315095    8.372199    ( 0.0000,  0.0000,  0.0000)
  83 O      1.114145   14.334302   10.991762    ( 0.0000,  0.0000,  0.0000)
  84 O      6.239756   12.451029   11.103019    ( 0.0000,  0.0000,  0.0000)
  85 Ti     4.491272   12.422614   11.946109    ( 0.0000,  0.0000,  0.0000)
  86 Ti     9.582332   14.328043   11.946890    ( 0.0000,  0.0000,  0.0000)
  87 Ti     2.038015   14.319819   12.511575    ( 0.0000,  0.0000,  0.0000)
  88 Ti     7.254488   12.439410   12.861917    ( 0.0000,  0.0000,  0.0000)
  89 O      2.515957   12.421279   12.775913    ( 0.0000,  0.0000,  0.0000)
  90 O      7.730962   14.346051   12.762848    ( 0.0000,  0.0000,  0.0000)
  91 O      0.405840   14.315671   13.374851    ( 0.0000,  0.0000,  0.0000)
  92 O      5.533685   12.364919   13.481361    ( 0.0000,  0.0000,  0.0000)
  93 O      9.167842   12.429500   11.828683    ( 0.0000,  0.0000,  0.0000)
  94 O      4.023236   14.328438   12.011416    ( 0.0000,  0.0000,  0.0000)
  95 V      3.966351    8.526727   14.699915    ( 0.0000,  0.0000,  0.0000)
  96 O      2.876847   10.083576   14.540635    ( 0.0000,  0.0000,  0.0000)
  97 O      3.038425    7.066189   14.533133    ( 0.0000,  0.0000,  0.0000)
  98 O      4.626390    8.584346   16.143397    ( 0.0000,  0.0000,  0.0000)
  99 V      9.127559   10.553458   14.712428    ( 0.0000,  0.0000,  0.0000)
 100 O      8.209183   12.017730   14.507666    ( 0.0000,  0.0000,  0.0000)
 101 O      8.032420    9.002258   14.572925    ( 0.0000,  0.0000,  0.0000)
 102 O      9.787850   10.525524   16.156662    ( 0.0000,  0.0000,  0.0000)
 103 H      8.018569    8.367002   15.313507    ( 0.0000,  0.0000,  0.0000)
 104 H      2.881828   10.737608   15.265000    ( 0.0000,  0.0000,  0.0000)

Unit cell:
           periodic     x           y           z      points  spacing
  1. axis:    yes   10.341746    0.000000    0.000000    54     0.1915
  2. axis:    yes   -0.000000   15.289380    0.000000    80     0.1911
  3. axis:    yes    0.000000    0.000000   23.497201   125     0.1880

  Lengths:  10.341746  15.289380  23.497201
  Angles:   90.000000  90.000000  90.000000

Effective grid spacing dv^(1/3) = 0.1902

                     log10-error:    total        iterations:
           time      wfs    density  energy       fermi  poisson
iter:   1  04:57:08  -4.38   +inf  -859.679240    3             
iter:   2  04:57:38  -5.28  -3.87  -859.681095    3             
iter:   3  04:58:07  -5.90  -3.92  -859.680310    2             
iter:   4  04:58:37  -5.50  -4.00  -859.680460    3             
iter:   5  04:59:06  -6.34  -4.16  -859.680440    2             
iter:   6  04:59:36  -6.61  -4.22  -859.680359    2             
iter:   7  05:00:05  -6.57  -4.31  -859.680434    2             
iter:   8  05:00:35  -7.04  -4.53  -859.680361    2             
iter:   9  05:01:04  -7.45  -4.75  -859.680373    2             

Converged after 9 iterations.

Dipole moment: (2.880804, -3.183171, -0.710041) |e|*Ang

Energy contributions relative to reference atoms: (reference = -935653.237240)

Kinetic:       +613.635558
Potential:     -782.228678
External:        +0.000000
XC:            -697.222219
Entropy (-ST):   -0.528579
Local:           +6.399255
--------------------------
Free energy:   -859.944663
Extrapolated:  -859.680373

Fermi level: -1.22399

Showing all kpts
 Kpt  Band  Eigenvalues  Occupancy
  0   411     -3.34797    1.00000
  0   412     -1.17516    0.38028
  0   413     -1.12392    0.26879
  0   414     -1.05782    0.15952

  1   411     -3.34798    1.00000
  1   412     -1.17105    0.37066
  1   413     -1.12693    0.27476
  1   414     -1.06405    0.16806



Forces in eV/Ang:
  0 O    -1.40756   -0.07183    1.17820
  1 O    -1.03052    0.00958    1.28712
  2 Ti    2.53380   -0.06643    1.27693
  3 Ti    2.43859    0.65551    0.93389
  4 Ti   -0.28790    0.10763   -1.10529
  5 Ti   -1.71378    0.28548   -1.03091
  6 O     0.27284   -0.18319   -0.11245
  7 O     0.27991    0.07866   -0.09758
  8 O    -0.95353   -0.05847   -0.27774
  9 O    -0.70373    0.02671   -0.24011
 10 O     0.11552    0.51261   -1.09804
 11 O     0.16584   -0.19003   -0.71524
 12 O     0.00053   -0.00013   -0.00072
 13 O     0.00049    0.00002   -0.00033
 14 Ti    0.00183   -0.00291   -0.00084
 15 Ti    0.00296    0.00041   -0.00093
 16 Ti   -0.00318    0.00057   -0.00025
 17 Ti   -0.00235    0.00077   -0.00206
 18 O     0.00007    0.00084    0.00052
 19 O     0.00081   -0.00151    0.00074
 20 O    -0.00025   -0.00020    0.00009
 21 O    -0.00119   -0.00004    0.00013
 22 O    -0.00057   -0.00103   -0.00019
 23 O    -0.00065   -0.00110   -0.00033
 24 O    -1.66104   -0.00389    1.97876
 25 O    -0.28641   -0.02113    0.27224
 26 Ti    0.47564    0.08350    0.47084
 27 Ti    3.77263   -0.03092    0.19330
 28 Ti   -0.81089   -0.00093   -1.90304
 29 Ti   -0.73873    0.23919   -0.06098
 30 O     0.13138   -0.15350    0.05346
 31 O    -0.02761   -0.35005   -0.00532
 32 O    -0.97725    0.02027    0.31734
 33 O     0.04957   -0.27534   -0.73088
 34 O     0.20151    0.16145   -0.74235
 35 O     0.00031   -0.00041   -0.00133
 36 O    -0.00065    0.00015    0.00055
 37 Ti    0.00066    0.00098   -0.00126
 38 Ti    0.00391    0.00406   -0.00084
 39 Ti   -0.00406   -0.00431   -0.00339
 40 Ti   -0.00155   -0.00386   -0.00310
 41 O     0.00003    0.00013    0.00008
 42 O     0.00028   -0.00219   -0.00019
 43 O    -0.00078   -0.00100    0.00044
 44 O     0.00018   -0.00114   -0.00086
 45 O    -0.00010    0.00165   -0.00080
 46 O    -0.00118    0.00017    0.00002
 47 O    -1.36440    0.09211    1.98231
 48 O    -1.01497   -0.05191    1.24086
 49 Ti    2.63281   -0.04138    1.08375
 50 Ti    3.37406   -0.43109    0.62738
 51 Ti   -0.81398   -0.09135   -2.41352
 52 Ti   -1.35378    0.12007   -1.26089
 53 O     0.25776    0.08309    0.13391
 54 O     0.09424    0.14807    0.06661
 55 O    -1.20045    0.15590    0.56129
 56 O    -0.92246    0.02173    0.14880
 57 O     0.12225    0.06182   -1.04343
 58 O     0.24112   -0.00863   -0.81389
 59 O     0.00001   -0.00172    0.00037
 60 O    -0.00050   -0.00013    0.00367
 61 Ti    0.00411    0.00265   -0.00323
 62 Ti   -0.00235   -0.00462    0.00252
 63 Ti    0.00043   -0.00218   -0.00364
 64 Ti   -0.00018    0.00135   -0.00091
 65 O    -0.00305   -0.00272    0.00046
 66 O    -0.00094    0.00249    0.00094
 67 O     0.00062   -0.00046    0.00040
 68 O     0.00131    0.00006   -0.00195
 69 O     0.00117   -0.00031   -0.00036
 70 O    -0.00029    0.00064   -0.00102
 71 O    -1.23402    0.04198    1.31466
 72 O    -1.36220    0.05795    1.59731
 73 Ti    2.78563   -0.05538    0.89827
 74 Ti    3.14346   -0.89489    1.00166
 75 Ti   -0.95859   -0.06055   -1.42417
 76 Ti   -1.04889   -0.51710   -1.31127
 77 O     0.10945    0.13629    0.00530
 78 O     0.18006   -0.02162   -0.04750
 79 O    -0.82459   -0.05562   -0.07784
 80 O    -0.64994   -0.01826   -0.09279
 81 O     0.01747    0.18517   -0.72040
 82 O     0.22307    0.28022   -0.87697
 83 O    -0.00011   -0.00035    0.00080
 84 O     0.00042   -0.00018   -0.00078
 85 Ti    0.00147   -0.00529   -0.00046
 86 Ti   -0.00105   -0.00486   -0.00155
 87 Ti   -0.00009    0.00022   -0.00024
 88 Ti   -0.00366    0.00214   -0.00341
 89 O    -0.00090    0.00039   -0.00058
 90 O     0.00001    0.00045   -0.00068
 91 O     0.00054   -0.00051    0.00029
 92 O     0.00079   -0.00021   -0.00032
 93 O    -0.00151   -0.00213   -0.00003
 94 O    -0.00017   -0.00126   -0.00022
 95 V     0.00174    0.00073    0.00348
 96 O     0.00077    0.00117   -0.00088
 97 O    -0.00094    0.00068    0.00049
 98 O    -0.00121   -0.00048   -0.00127
 99 V    -0.00034   -0.00006    0.00468
100 O     0.00174   -0.00155   -0.00237
101 O     0.00338    0.00479   -0.00154
102 O     0.00405    0.00138    0.00093
103 H    -0.00191    0.00155   -0.00074
104 H    -0.00432   -0.00395    0.00316

Timing:                                      incl.     excl.
-------------------------------------------------------------------
Density initialized from wave functions:   268.292   268.289   0.6% |
 Symmetrize density:                         0.003     0.003   0.0% |
Forces:                                   2065.631  2065.631   4.4% |-|
Hamiltonian:                               235.312     2.310   0.0% |
 Atomic:                                    30.518     0.333   0.0% |
  XC Correction:                            30.185    30.185   0.1% |
 Calculate atomic Hamiltonians:            143.348   143.348   0.3% |
 Communicate:                               14.294    14.294   0.0% |
 Initialize Hamiltonian:                     0.000     0.000   0.0% |
 Poisson:                                    0.360     0.360   0.0% |
 XC 3D grid:                                44.480    44.480   0.1% |
LCAO initialization:                        71.463     2.004   0.0% |
 LCAO eigensolver:                          17.166     0.016   0.0% |
  Calculate projections:                     0.005     0.005   0.0% |
  DenseAtomicCorrection:                     0.014     0.014   0.0% |
  Distribute overlap matrix:                 6.762     6.762   0.0% |
  Orbital Layouts:                           9.110     9.110   0.0% |
  Potential matrix:                          0.970     0.970   0.0% |
  Sum over cells:                            0.288     0.288   0.0% |
 LCAO to grid:                              50.112    50.112   0.1% |
 Set positions (LCAO WFS):                   2.181     1.786   0.0% |
  Basic WFS set positions:                   0.003     0.003   0.0% |
  Basis functions set positions:             0.001     0.001   0.0% |
  P tci:                                     0.017     0.017   0.0% |
  ST tci:                                    0.195     0.195   0.0% |
  mktci:                                     0.181     0.181   0.0% |
PWDescriptor:                                0.137     0.137   0.0% |
Redistribute:                                0.130     0.130   0.0% |
SCF-cycle:                               43515.869    53.212   0.1% |
 Davidson:                               38502.684 11089.260  23.8% |---------|
  Apply H:                                6122.608  5958.956  12.8% |----|
   HMM T:                                  163.652   163.652   0.4% |
  Subspace diag:                          4776.926     0.232   0.0% |
   calc_h_matrix:                         2910.837   877.627   1.9% ||
    Apply H:                              2033.210  1977.188   4.2% |-|
     HMM T:                                 56.022    56.022   0.1% |
   diagonalize:                            206.647   206.647   0.4% |
   rotate_psi:                            1659.209  1659.209   3.6% ||
  calc. matrices:                        10292.527  6237.440  13.4% |----|
   Apply H:                               4055.087  3947.114   8.5% |--|
    HMM T:                                 107.973   107.973   0.2% |
  diagonalize:                            2812.795  2812.795   6.0% |-|
  rotate_psi:                             3408.567  3408.567   7.3% |--|
 Density:                                 2449.313     0.034   0.0% |
  Atomic density matrices:                  11.911    11.911   0.0% |
  Mix:                                    1398.767  1398.767   3.0% ||
  Multipole moments:                         0.938     0.938   0.0% |
  Pseudo density:                         1037.663  1037.633   2.2% ||
   Symmetrize density:                       0.029     0.029   0.0% |
 Hamiltonian:                             2107.143    21.061   0.0% |
  Atomic:                                  273.845     1.668   0.0% |
   XC Correction:                          272.178   272.178   0.6% |
  Calculate atomic Hamiltonians:          1287.963  1287.963   2.8% ||
  Communicate:                             127.453   127.453   0.3% |
  Poisson:                                   3.237     3.237   0.0% |
  XC 3D grid:                              393.584   393.584   0.8% |
 Orthonormalize:                           403.517     0.034   0.0% |
  calc_s_matrix:                            43.389    43.389   0.1% |
  inverse-cholesky:                         11.754    11.754   0.0% |
  projections:                             266.703   266.703   0.6% |
  rotate_psi_s:                             81.638    81.638   0.2% |
Set symmetry:                                0.001     0.001   0.0% |
Other:                                     406.016   406.016   0.9% |
-------------------------------------------------------------------
Total:                                             46562.850 100.0%

Memory usage: 1.10 GiB
Date: Thu Feb 27 05:01:18 2020
