
  ___ ___ ___ _ _ _  
 |   |   |_  | | | | 
 | | | | | . | | | | 
 |__ |  _|___|_____|  1.5.1
 |___|_|             

User:   siva@s83n36.grendel.cscaa.dk
Date:   Wed Feb 26 11:12:41 2020
Arch:   x86_64
Pid:    10597
Python: 3.6.3
gpaw:   /home/siva/gpaw-1.5.1/gpaw
_gpaw:  /home/siva/gpaw-1.5.1/build/bin.linux-x86_64-3.6/gpaw-python
ase:    /home/siva/env1.5/lib/python3.6/site-packages/ase (version 3.17.0)
numpy:  /home/siva/env1.5/lib/python3.6/site-packages/numpy (version 1.16.0)
scipy:  /home/siva/env1.5/lib/python3.6/site-packages/scipy (version 1.2.0)
units:  Angstrom and eV
cores:  28
Extra parameters: {'blacs': True}

Input parameters:
  basis: dzp
  kpts: [2 2 1]
  mode: {ecut: 500.0,
         gammacentered: False,
         name: pw}
  xc: PBE

System changes: positions, numbers, cell, pbc, initial_charges, initial_magmoms 

Initialize ...

O-setup:
  name: Oxygen
  id: 32ecd46bf208036f09c70b0ec9a88b78
  Z: 8
  valence: 6
  core: 2
  charge: 0.0
  file: /home/wido/sw/gpaw/basis/gpaw-setups-0.9.20000/O.PBE.gz
  cutoffs: 0.67(comp), 1.17(filt), 0.83(core), lmax=2
  valence states:
                energy  radius
    2s(2.00)   -23.961   0.688
    2p(4.00)    -9.029   0.598
    *s           3.251   0.688
    *p          18.182   0.598
    *d           0.000   0.619

  LCAO basis set for O:
    Name: dzp
    File: /home/wido/sw/gpaw/basis/gpaw-setups-0.9.20000/O.dzp.basis.gz
    Number of radial functions: 5
    Number of spherical harmonics: 13
      l=0, rc=4.3438 Bohr: 2s-sz confined orbital
      l=1, rc=5.3906 Bohr: 2p-sz confined orbital
      l=0, rc=2.2969 Bohr: 2s-dz split-valence wave
      l=1, rc=2.8906 Bohr: 2p-dz split-valence wave
      l=2, rc=5.3906 Bohr: d-type Gaussian polarization

Ti-setup:
  name: Titanium
  id: d282db07e62ae71292040bf25b25ccdd
  Z: 22
  valence: 12
  core: 10
  charge: 0.0
  file: /home/wido/sw/gpaw/basis/gpaw-setups-0.9.20000/Ti.PBE.gz
  cutoffs: 1.22(comp), 2.23(filt), 1.02(core), lmax=2
  valence states:
                energy  radius
    3s(2.00)   -62.623   1.270
    4s(2.00)    -4.466   1.270
    3p(6.00)   -38.862   1.058
    4p(0.00)    -1.466   1.058
    3d(2.00)    -4.258   1.058
    *d          22.953   1.058

  LCAO basis set for Ti:
    Name: dzp
    File: /home/wido/sw/gpaw/basis/gpaw-setups-0.9.20000/Ti.dzp.basis.gz
    Number of radial functions: 11
    Number of spherical harmonics: 29
      l=0, rc=3.4375 Bohr: 3s-sz confined orbital
      l=0, rc=9.9062 Bohr: 4s-sz confined orbital
      l=1, rc=3.8906 Bohr: 3p-sz confined orbital
      l=1, rc=13.1094 Bohr: 4p-sz confined orbital
      l=2, rc=6.6250 Bohr: 3d-sz confined orbital
      l=0, rc=2.1406 Bohr: 3s-dz split-valence wave
      l=0, rc=6.0156 Bohr: 4s-dz split-valence wave
      l=1, rc=2.3125 Bohr: 3p-dz split-valence wave
      l=1, rc=8.1094 Bohr: 4p-dz split-valence wave
      l=2, rc=3.8594 Bohr: 3d-dz split-valence wave
      l=1, rc=9.9062 Bohr: p-type Gaussian polarization

V-setup:
  name: Vanadium
  id: a8354638d66c808f8c867a10b63fd727
  Z: 23
  valence: 13
  core: 10
  charge: 0.0
  file: /home/wido/sw/gpaw/basis/gpaw-setups-0.9.20000/V.PBE.gz
  cutoffs: 1.19(comp), 2.14(filt), 0.96(core), lmax=2
  valence states:
                energy  radius
    3s(2.00)   -70.222   1.254
    4s(2.00)    -4.702   1.254
    3p(6.00)   -44.043   1.281
    4p(0.00)    -1.444   1.281
    3d(3.00)    -5.164   1.169
    *d          22.047   1.169

  LCAO basis set for V:
    Name: dzp
    File: /home/wido/sw/gpaw/basis/gpaw-setups-0.9.20000/V.dzp.basis.gz
    Number of radial functions: 11
    Number of spherical harmonics: 29
      l=0, rc=3.2656 Bohr: 3s-sz confined orbital
      l=0, rc=9.5312 Bohr: 4s-sz confined orbital
      l=1, rc=3.6719 Bohr: 3p-sz confined orbital
      l=1, rc=12.8750 Bohr: 4p-sz confined orbital
      l=2, rc=6.0938 Bohr: 3d-sz confined orbital
      l=0, rc=2.0625 Bohr: 3s-dz split-valence wave
      l=0, rc=5.7656 Bohr: 4s-dz split-valence wave
      l=1, rc=2.4062 Bohr: 3p-dz split-valence wave
      l=1, rc=7.8906 Bohr: 4p-dz split-valence wave
      l=2, rc=3.6562 Bohr: 3d-dz split-valence wave
      l=1, rc=9.5312 Bohr: p-type Gaussian polarization

H-setup:
  name: Hydrogen
  id: d65de229564ff8ea4db303e23b6d1ecf
  Z: 1
  valence: 1
  core: 0
  charge: 0.0
  file: /home/wido/sw/gpaw/basis/gpaw-setups-0.9.20000/H.PBE.gz
  cutoffs: 0.48(comp), 0.85(filt), 0.53(core), lmax=2
  valence states:
                energy  radius
    1s(1.00)    -6.494   0.476
    *s          20.717   0.476
    *p           0.000   0.476

  LCAO basis set for H:
    Name: dzp
    File: /home/wido/sw/gpaw/basis/gpaw-setups-0.9.20000/H.dzp.basis.gz
    Number of radial functions: 3
    Number of spherical harmonics: 5
      l=0, rc=6.4219 Bohr: 1s-sz confined orbital
      l=0, rc=3.6094 Bohr: 1s-dz split-valence wave
      l=1, rc=6.4219 Bohr: p-type Gaussian polarization

Reference energy: -935653.237240

Spin-paired calculation

Occupation numbers:
  Fermi-Dirac: width=0.1000 eV

Convergence criteria:
  Maximum total energy change: 0.0005 eV / electron
  Maximum integral of absolute density change: 0.0001 electrons
  Maximum integral of absolute eigenstate change: 4e-08 eV^2
  Maximum number of iterations: 333

Symmetries present (total): 1

  ( 1  0  0)
  ( 0  1  0)
  ( 0  0  1)

4 k-points: 2 x 2 x 1 Monkhorst-Pack grid
2 k-points in the irreducible part of the Brillouin zone
       k-points in crystal coordinates                weights
   0:     0.25000000   -0.25000000    0.00000000          2/4
   1:     0.25000000    0.25000000    0.00000000          2/4

Wave functions: Plane wave expansion
  Cutoff energy: 500.000 eV
  Number of coefficients (min, max): 94343, 94343
  Pulay-stress correction: 0.000000 eV/Ang^3 (de/decut=0.000000)
  Using FFTW library
  ScaLapack parameters: grid=1x1, blocksize=None
  Wavefunction extrapolation:
    Improved wavefunction reuse through dual PAW basis 

Eigensolver
   Davidson(niter=2, smin=None, normalize=True) 

Densities:
  Coarse grid: 54*80*125 grid
  Fine grid: 108*160*250 grid
  Total Charge: 0.000000 

Density mixing:
  Method: separate
  Backend: pulay
  Linear mixing parameter: 0.05
  Mixing with 5 old densities
  Damping of long wave oscillations: 50 

Hamiltonian:
  XC and Coulomb potentials evaluated on a 108*160*250 grid
  Using the PBE Exchange-Correlation functional
 

XC parameters: PBE with 2 nearest neighbor stencil

Memory estimate:
  Process memory now: 329.07 MiB
  Calculator: 1537.43 MiB
    Density: 23.73 MiB
      Arrays: 7.71 MiB
      Localized functions: 13.05 MiB
      Mixer: 2.97 MiB
    Hamiltonian: 5.42 MiB
      Arrays: 5.04 MiB
      XC: 0.00 MiB
      Poisson: 0.00 MiB
      vbar: 0.38 MiB
    Wavefunctions: 1508.28 MiB
      Arrays psit_nG: 719.78 MiB
      Eigensolver: 765.14 MiB
      Projections: 0.83 MiB
      Projectors: 1.49 MiB
      PW-descriptor: 21.04 MiB

Total number of cores used: 28
Parallelization over k-points: 2
Domain decomposition: 1 x 2 x 7

Number of atoms: 105
Number of atomic orbitals: 1893
Number of bands in calculation: 500
Bands to converge: occupied states only
Number of valence electrons: 826

... initialized

Initializing position-dependent things.

Density initialized from atomic densities
Creating initial wave functions:
  500 bands from LCAO basis set

          .------------------------.  
         /|                        |  
        / |                        |  
       /  |                        |  
      /   |                        |  
     /    |                        |  
    /     |                        |  
   /      |                        |  
  /       |                        |  
 *        |                        |  
 |        |                        |  
 |        |                        |  
 |        |                        |  
 |        O      O                 |  
 |        |   Oi      O   H OO     |  
 |      O | H  OV  O     OTi     Ti|  
 |        | Oi     Oi     OV  O    |  
 |    O   |      O     OOi    TiO  |  
 |        TiO    O          O      |  
 |        O     TiO  OTi O   Ti    |  
 |  O     |O  OTi     Ti   OTiO  O |  
 |     OTii  O OO    OO   O        |  
 |      OO| O     OTii    Tii      |  
 |   OTi  | Tii     O   OO     O   |  
 |    O   |O     OTi     Oi        |  
 |  Ti    TO   O  O    O     O     |  
 |  O    O|     Ti    Ti           |  
 |       Ti         O      O       |  
 |        |  O                     |  
 |        .------------------------.  
 |       /                        /   
 |      /                        /    
 |     /                        /     
 |    /                        /      
 |   /                        /       
 |  /                        /        
 | /                        /         
 |/                        /          
 *------------------------*           

Positions:
   0 O      9.974517    2.862499    7.395923    ( 0.0000,  0.0000,  0.0000)
   1 O      4.751576    0.970856    7.433844    ( 0.0000,  0.0000,  0.0000)
   2 Ti     2.973752    0.965511    8.331948    ( 0.0000,  0.0000,  0.0000)
   3 Ti     8.189404    2.803522    8.288172    ( 0.0000,  0.0000,  0.0000)
   4 Ti     0.613369    2.836809    8.994488    ( 0.0000,  0.0000,  0.0000)
   5 Ti     5.856682    0.938662    8.958328    ( 0.0000,  0.0000,  0.0000)
   6 O      1.063899    0.953977    8.954538    ( 0.0000,  0.0000,  0.0000)
   7 O      6.332739    2.842687    8.933688    ( 0.0000,  0.0000,  0.0000)
   8 O      9.254147    2.761528    9.821154    ( 0.0000,  0.0000,  0.0000)
   9 O      4.054529    0.983467    9.850791    ( 0.0000,  0.0000,  0.0000)
  10 O      7.750782    0.923741    8.323928    ( 0.0000,  0.0000,  0.0000)
  11 O      2.518424    2.887861    8.350100    ( 0.0000,  0.0000,  0.0000)
  12 O      1.083584    2.903229   11.006608    ( 0.0000,  0.0000,  0.0000)
  13 O      6.284878    0.925204   10.964316    ( 0.0000,  0.0000,  0.0000)
  14 Ti     4.398607    0.983306   11.931409    ( 0.0000,  0.0000,  0.0000)
  15 Ti     9.554236    2.816077   11.878511    ( 0.0000,  0.0000,  0.0000)
  16 Ti     2.012471    2.860517   12.528993    ( 0.0000,  0.0000,  0.0000)
  17 Ti     7.197864    0.937822   12.491953    ( 0.0000,  0.0000,  0.0000)
  18 O      2.556188    0.966976   12.714585    ( 0.0000,  0.0000,  0.0000)
  19 O      7.733630    2.846734   12.727548    ( 0.0000,  0.0000,  0.0000)
  20 O      0.377999    2.848656   13.410776    ( 0.0000,  0.0000,  0.0000)
  21 O      5.573727    1.038562   13.357012    ( 0.0000,  0.0000,  0.0000)
  22 O      9.167409    0.941196   11.927835    ( 0.0000,  0.0000,  0.0000)
  23 O      3.954184    2.909240   11.920836    ( 0.0000,  0.0000,  0.0000)
  24 O      9.990889    6.696232    7.341894    ( 0.0000,  0.0000,  0.0000)
  25 O      4.511960    4.787917    8.184082    ( 0.0000,  0.0000,  0.0000)
  26 Ti     2.724858    4.779771    7.960807    ( 0.0000,  0.0000,  0.0000)
  27 Ti     8.145479    6.707698    8.192011    ( 0.0000,  0.0000,  0.0000)
  28 Ti     0.630398    6.695439    9.077253    ( 0.0000,  0.0000,  0.0000)
  29 Ti     6.062248    4.766294    9.148169    ( 0.0000,  0.0000,  0.0000)
  30 O      1.023957    4.767147    8.931551    ( 0.0000,  0.0000,  0.0000)
  31 O      6.358432    6.708779    8.938070    ( 0.0000,  0.0000,  0.0000)
  32 O      9.235162    6.764411    9.751167    ( 0.0000,  0.0000,  0.0000)
  33 O      7.850578    4.773562    8.386917    ( 0.0000,  0.0000,  0.0000)
  34 O      2.498268    6.663844    8.333080    ( 0.0000,  0.0000,  0.0000)
  35 O      1.064415    6.519619   11.056037    ( 0.0000,  0.0000,  0.0000)
  36 O      5.831287    4.737886   10.932171    ( 0.0000,  0.0000,  0.0000)
  37 Ti     4.445508    4.790676   12.241362    ( 0.0000,  0.0000,  0.0000)
  38 Ti     9.392224    6.650207   11.631987    ( 0.0000,  0.0000,  0.0000)
  39 Ti     2.025547    6.626118   12.651525    ( 0.0000,  0.0000,  0.0000)
  40 Ti     7.436381    4.754254   13.043580    ( 0.0000,  0.0000,  0.0000)
  41 O      2.548827    4.735849   12.928283    ( 0.0000,  0.0000,  0.0000)
  42 O      7.628002    6.668753   12.514862    ( 0.0000,  0.0000,  0.0000)
  43 O      0.350857    6.677630   13.444649    ( 0.0000,  0.0000,  0.0000)
  44 O      5.653070    4.785927   13.574691    ( 0.0000,  0.0000,  0.0000)
  45 O      9.084984    4.774666   11.791512    ( 0.0000,  0.0000,  0.0000)
  46 O      3.950961    6.596938   11.828545    ( 0.0000,  0.0000,  0.0000)
  47 O      9.941219   10.526766    7.424162    ( 0.0000,  0.0000,  0.0000)
  48 O      4.793811    8.598035    7.389240    ( 0.0000,  0.0000,  0.0000)
  49 Ti     2.924043    8.598447    8.231525    ( 0.0000,  0.0000,  0.0000)
  50 Ti     8.168624   10.568713    8.307193    ( 0.0000,  0.0000,  0.0000)
  51 Ti     0.689842   10.519812    9.160804    ( 0.0000,  0.0000,  0.0000)
  52 Ti     5.895270    8.633917    8.910762    ( 0.0000,  0.0000,  0.0000)
  53 O      1.085423    8.597422    8.995679    ( 0.0000,  0.0000,  0.0000)
  54 O      6.252646   10.528029    8.921193    ( 0.0000,  0.0000,  0.0000)
  55 O      9.220059   10.568411    9.844708    ( 0.0000,  0.0000,  0.0000)
  56 O      4.059029    8.507535    9.748930    ( 0.0000,  0.0000,  0.0000)
  57 O      7.758726    8.628199    8.273162    ( 0.0000,  0.0000,  0.0000)
  58 O      2.566398   10.490594    8.371621    ( 0.0000,  0.0000,  0.0000)
  59 O      1.068765   10.539514   11.071770    ( 0.0000,  0.0000,  0.0000)
  60 O      6.217449    8.697651   11.011871    ( 0.0000,  0.0000,  0.0000)
  61 Ti     4.245429    8.611597   11.642942    ( 0.0000,  0.0000,  0.0000)
  62 Ti     9.533193   10.560932   11.921444    ( 0.0000,  0.0000,  0.0000)
  63 Ti     2.081041   10.543032   12.803416    ( 0.0000,  0.0000,  0.0000)
  64 Ti     7.212003    8.647550   12.535852    ( 0.0000,  0.0000,  0.0000)
  65 O      2.497815    8.551930   12.436824    ( 0.0000,  0.0000,  0.0000)
  66 O      7.661334   10.526443   12.717072    ( 0.0000,  0.0000,  0.0000)
  67 O      0.379265   10.530886   13.465186    ( 0.0000,  0.0000,  0.0000)
  68 O      5.299850    8.622258   13.414085    ( 0.0000,  0.0000,  0.0000)
  69 O      9.004975    8.606686   11.808712    ( 0.0000,  0.0000,  0.0000)
  70 O      3.962692   10.506711   11.783413    ( 0.0000,  0.0000,  0.0000)
  71 O      9.924325   14.342583    7.441007    ( 0.0000,  0.0000,  0.0000)
  72 O      4.751345   12.420255    7.419069    ( 0.0000,  0.0000,  0.0000)
  73 Ti     2.956521   12.425773    8.321746    ( 0.0000,  0.0000,  0.0000)
  74 Ti     8.154962   14.365639    8.334509    ( 0.0000,  0.0000,  0.0000)
  75 Ti     0.650324   14.339133    8.977444    ( 0.0000,  0.0000,  0.0000)
  76 Ti     5.825252   12.455807    8.942724    ( 0.0000,  0.0000,  0.0000)
  77 O      1.076745   12.417342    8.959204    ( 0.0000,  0.0000,  0.0000)
  78 O      6.230080   14.350295    8.927239    ( 0.0000,  0.0000,  0.0000)
  79 O      9.212773   14.346204    9.869863    ( 0.0000,  0.0000,  0.0000)
  80 O      4.047363   12.465565    9.835258    ( 0.0000,  0.0000,  0.0000)
  81 O      7.738576   12.452498    8.352645    ( 0.0000,  0.0000,  0.0000)
  82 O      2.551770   14.335367    8.361171    ( 0.0000,  0.0000,  0.0000)
  83 O      1.097700   14.346172   10.991752    ( 0.0000,  0.0000,  0.0000)
  84 O      6.264813   12.461590   10.957634    ( 0.0000,  0.0000,  0.0000)
  85 Ti     4.369175   12.415920   11.900299    ( 0.0000,  0.0000,  0.0000)
  86 Ti     9.571622   14.360734   11.964550    ( 0.0000,  0.0000,  0.0000)
  87 Ti     2.034822   14.357257   12.505262    ( 0.0000,  0.0000,  0.0000)
  88 Ti     7.155948   12.459113   12.489161    ( 0.0000,  0.0000,  0.0000)
  89 O      2.556681   12.442613   12.711881    ( 0.0000,  0.0000,  0.0000)
  90 O      7.705254   14.342628   12.720031    ( 0.0000,  0.0000,  0.0000)
  91 O      0.426303   14.337254   13.402284    ( 0.0000,  0.0000,  0.0000)
  92 O      5.535906   12.387193   13.345972    ( 0.0000,  0.0000,  0.0000)
  93 O      9.154483   12.423198   11.951430    ( 0.0000,  0.0000,  0.0000)
  94 O      4.010335   14.346558   11.936333    ( 0.0000,  0.0000,  0.0000)
  95 V      3.988723    8.690891   14.695418    ( 0.0000,  0.0000,  0.0000)
  96 O      3.019129   10.103943   14.484226    ( 0.0000,  0.0000,  0.0000)
  97 O      2.982573    7.105389   14.568395    ( 0.0000,  0.0000,  0.0000)
  98 O      4.621932    8.699492   16.150908    ( 0.0000,  0.0000,  0.0000)
  99 V      9.230239    6.667883   14.745031    ( 0.0000,  0.0000,  0.0000)
 100 O      8.318075    5.133627   14.606662    ( 0.0000,  0.0000,  0.0000)
 101 O      8.092994    8.158202   14.576721    ( 0.0000,  0.0000,  0.0000)
 102 O      9.943517    6.757734   16.155307    ( 0.0000,  0.0000,  0.0000)
 103 H      8.087681    8.816754   15.296094    ( 0.0000,  0.0000,  0.0000)
 104 H      2.871539    6.513946   15.334303    ( 0.0000,  0.0000,  0.0000)

Unit cell:
           periodic     x           y           z      points  spacing
  1. axis:    yes   10.341746    0.000000    0.000000    54     0.1915
  2. axis:    yes   -0.000000   15.289380    0.000000    80     0.1911
  3. axis:    yes    0.000000    0.000000   23.497201   125     0.1880

  Lengths:  10.341746  15.289380  23.497201
  Angles:   90.000000  90.000000  90.000000

Effective grid spacing dv^(1/3) = 0.1902

                     log10-error:    total        iterations:
           time      wfs    density  energy       fermi  poisson
iter:   1  11:14:12  -0.09   +inf  -978.290262    4             
iter:   2  11:14:34  -0.97  -0.95  -936.328284    5             
iter:   3  11:14:56  +0.41  -1.00  -859.542475    38            
iter:   4  11:15:18  -0.37  -1.31  -860.099911    35            
iter:   5  11:15:40  -1.43  -1.35  -861.547236    35            
iter:   6  11:16:03  -1.52  -1.34  -864.629162    33            
iter:   7  11:16:25  -1.09  -1.38  -860.124768    35            
iter:   8  11:16:47  -1.25  -1.57  -862.157796    4             
iter:   9  11:17:09  -1.93  -1.75  -859.955686    32            
iter:  10  11:17:32  -2.18  -1.88  -859.830688    4             
iter:  11  11:17:54  -2.64  -2.08  -859.578596    3             
iter:  12  11:18:16  -2.33  -2.19  -859.458015    3             
iter:  13  11:18:38  -3.00  -2.33  -859.412729    3             
iter:  14  11:19:01  -3.22  -2.37  -859.330202    4             
iter:  15  11:19:23  -2.90  -2.42  -859.300792    3             
iter:  16  11:19:45  -3.27  -2.54  -859.305114    4             
iter:  17  11:20:07  -3.71  -2.74  -859.294551    3             
iter:  18  11:20:30  -4.01  -2.77  -859.292359    3             
iter:  19  11:20:52  -4.19  -2.89  -859.292088    3             
iter:  20  11:21:14  -4.52  -3.00  -859.290286    3             
iter:  21  11:21:36  -4.42  -3.09  -859.290572    3             
iter:  22  11:21:59  -4.93  -3.22  -859.291647    2             
iter:  23  11:22:21  -5.00  -3.40  -859.291336    3             
iter:  24  11:22:43  -5.25  -3.67  -859.290760    3             
iter:  25  11:23:05  -6.10  -3.83  -859.290506    2             
iter:  26  11:23:28  -5.80  -3.90  -859.290469    2             
iter:  27  11:23:50  -6.24  -4.12  -859.290364    2             
iter:  28  11:24:12  -6.60  -4.20  -859.290522    2             
iter:  29  11:24:34  -7.15  -4.23  -859.290479    2             
iter:  30  11:24:57  -6.30  -4.27  -859.290395    2             
iter:  31  11:25:19  -6.70  -4.53  -859.290418    2             
iter:  32  11:25:41  -7.55  -4.78  -859.290440    2             

Converged after 32 iterations.

Dipole moment: (-0.504994, 1.146030, -0.671079) |e|*Ang

Energy contributions relative to reference atoms: (reference = -935653.237240)

Kinetic:       +626.511925
Potential:     -792.507286
External:        +0.000000
XC:            -699.448516
Entropy (-ST):   -0.533711
Local:           +6.420291
--------------------------
Free energy:   -859.557296
Extrapolated:  -859.290440

Fermi level: -1.24399

Showing all kpts
 Kpt  Band  Eigenvalues  Occupancy
  0   411     -3.15912    1.00000
  0   412     -1.17225    0.32798
  0   413     -1.14091    0.26293
  0   414     -1.08448    0.16867

  1   411     -3.15959    1.00000
  1   412     -1.16902    0.32090
  1   413     -1.14274    0.26651
  1   414     -1.07509    0.15591



Forces in eV/Ang:
  0 O    -1.57489   -0.09751    1.24869
  1 O    -1.09720    0.01852    1.23128
  2 Ti    2.52091   -0.01424    1.11773
  3 Ti    2.39495    0.28956    0.46884
  4 Ti    0.28216    0.11306   -1.58425
  5 Ti   -1.73269    0.10073   -1.15877
  6 O     0.29984   -0.01539   -0.03977
  7 O     0.17077    0.24407   -0.25950
  8 O    -1.48850   -0.00884    0.38766
  9 O    -0.67810   -0.04917   -0.13289
 10 O     0.22390    0.44220   -1.05179
 11 O     0.40830   -0.18441   -1.03947
 12 O    -0.12962   -0.04333   -0.13237
 13 O    -0.06446    0.09575    0.07348
 14 Ti   -0.15011   -0.05690    0.05033
 15 Ti    0.76546    0.43687    1.12734
 16 Ti   -0.40116    0.07712    0.33515
 17 Ti   -0.36138    0.14645    0.01670
 18 O     0.02339    0.01340    0.12081
 19 O     0.02428   -0.00971    0.08504
 20 O    -0.26967   -0.00715   -1.05356
 21 O     0.04115   -0.09910   -0.01959
 22 O     0.11877    0.11828   -0.09760
 23 O     0.25703   -0.00704   -0.08668
 24 O    -1.64326   -0.07187    2.18706
 25 O    -0.18103   -0.02191   -0.17933
 26 Ti   -0.25188    0.04581    0.76238
 27 Ti    3.13914    0.56686   -0.16360
 28 Ti    0.78001    0.02031   -2.68069
 29 Ti   -0.42183    0.10320    0.32798
 30 O     0.21776    0.06520   -0.04591
 31 O    -0.13926   -0.37083   -0.06914
 32 O    -1.82638   -0.00253    0.76209
 33 O    -0.06314   -0.24103   -0.83612
 34 O     0.40870    0.12504   -1.12098
 35 O    -0.64650    0.19327   -0.12826
 36 O     0.08363    0.01670    0.09444
 37 Ti    0.11406   -0.11707    0.01506
 38 Ti    1.01397   -0.02177    0.64192
 39 Ti    0.84086   -0.00310   -0.69831
 40 Ti   -0.03097    0.03911   -0.04912
 41 O    -0.08738    0.20641    0.06767
 42 O     0.24438   -0.10652   -0.05184
 43 O    -2.70634    0.10593    0.97357
 44 O    -0.09857    0.02403   -0.05204
 45 O     0.00549   -0.13321    0.18969
 46 O    -0.16312   -0.08797    0.27248
 47 O    -1.68795    0.01648    2.01462
 48 O    -1.10134   -0.02255    1.18587
 49 Ti    2.51906   -0.00674    1.02658
 50 Ti    3.69831   -0.16583    0.07591
 51 Ti   -0.95671    0.05250   -1.76982
 52 Ti   -1.28465    0.22206   -1.28750
 53 O     0.24587   -0.23987    0.02920
 54 O    -0.00776   -0.02291   -0.15295
 55 O    -0.97741   -0.10308    0.71452
 56 O    -0.89066   -0.02242   -0.05029
 57 O     0.19002   -0.13347   -0.78825
 58 O     0.27715    0.01632   -0.80319
 59 O    -0.44900   -0.06641    0.17665
 60 O    -0.04814   -0.23126    0.25945
 61 Ti    0.06255    0.20018    0.05777
 62 Ti    1.52355    0.01764    0.44027
 63 Ti   -0.67874   -0.00808   -0.02571
 64 Ti   -0.22948    0.12742    0.03100
 65 O    -0.00135   -0.22842   -0.00659
 66 O     0.03249    0.04262    0.22537
 67 O    -0.64294   -0.14450   -0.76565
 68 O     0.10052   -0.07148   -0.09855
 69 O     0.40155   -0.05614    0.23369
 70 O     0.19338   -0.02359    0.07661
 71 O    -1.18101    0.04826    1.30062
 72 O    -1.17809    0.07606    1.17164
 73 Ti    2.54593   -0.10964    0.99350
 74 Ti    2.81689   -1.00988    0.86054
 75 Ti   -0.90822   -0.25344   -1.21812
 76 Ti   -1.08999   -0.47609   -1.34586
 77 O     0.28488    0.20635   -0.03312
 78 O     0.23590    0.09373   -0.22830
 79 O    -0.69927    0.03274    0.00365
 80 O    -0.77469   -0.03187   -0.16462
 81 O     0.03593    0.21496   -0.92421
 82 O     0.22812    0.23968   -0.96623
 83 O    -0.22714    0.05110    0.10232
 84 O    -0.00491    0.00534    0.08343
 85 Ti   -0.08770   -0.08016    0.02889
 86 Ti    0.52967   -0.63335    0.16654
 87 Ti    0.14028   -0.20979   -0.07685
 88 Ti   -0.05661   -0.26807   -0.13618
 89 O     0.02224    0.12909    0.12850
 90 O     0.03480    0.08684    0.20320
 91 O    -0.34747    0.09005   -0.37598
 92 O     0.10167    0.03880    0.02989
 93 O    -0.00143    0.14084    0.14383
 94 O     0.04340    0.26511    0.01421
 95 V    -0.02177    0.14507    0.05065
 96 O     0.13389    0.01231    0.04100
 97 O    -0.17247   -0.10740   -0.02909
 98 O     0.12148    0.04588    0.06754
 99 V     0.90454    0.03087   -0.33318
100 O     0.15961   -0.02928    0.19464
101 O    -0.04777    0.14811   -0.03683
102 O    -0.08945   -0.06361    0.04083
103 H     0.02448    0.05149    0.06587
104 H     0.06709   -0.00727    0.09717

System changes: positions 

Initializing position-dependent things.

Density initialized from wave functions
          .------------------------.  
         /|                        |  
        / |                        |  
       /  |                        |  
      /   |                        |  
     /    |                        |  
    /     |                        |  
   /      |                        |  
  /       |                        |  
 *        |                        |  
 |        |                        |  
 |        |                        |  
 |        |                        |  
 |        O      O                 |  
 |        |   Oi      O   H OO     |  
 |      O | H  OV  O     OTi     Ti|  
 |        | Oi     Oi     OV  O    |  
 |    O   |      O     OOi    TiO  |  
 |        TiO    O          O      |  
 |        O     TiO  OTi O   Ti    |  
 |  O     |O  OTi     Ti   OTiO  O |  
 |     OTii  O OO    OO   O        |  
 |      OO| O     OTii    Tii      |  
 |   OTi  | Tii     O   OO     O   |  
 |    O   |O     OTi     Oi        |  
 |  Ti    TO   O  O    O     O     |  
 |  O    O|     Ti    Ti           |  
 |       Ti         O      O       |  
 |        |  O                     |  
 |        .------------------------.  
 |       /                        /   
 |      /                        /    
 |     /                        /     
 |    /                        /      
 |   /                        /       
 |  /                        /        
 | /                        /         
 |/                        /          
 *------------------------*           

Positions:
   0 O      9.974517    2.862499    7.395923    ( 0.0000,  0.0000,  0.0000)
   1 O      4.751576    0.970856    7.433844    ( 0.0000,  0.0000,  0.0000)
   2 Ti     2.973752    0.965511    8.331948    ( 0.0000,  0.0000,  0.0000)
   3 Ti     8.189404    2.803522    8.288172    ( 0.0000,  0.0000,  0.0000)
   4 Ti     0.613369    2.836809    8.994488    ( 0.0000,  0.0000,  0.0000)
   5 Ti     5.856682    0.938662    8.958328    ( 0.0000,  0.0000,  0.0000)
   6 O      1.063899    0.953977    8.954538    ( 0.0000,  0.0000,  0.0000)
   7 O      6.332739    2.842687    8.933688    ( 0.0000,  0.0000,  0.0000)
   8 O      9.254147    2.761528    9.821154    ( 0.0000,  0.0000,  0.0000)
   9 O      4.054529    0.983467    9.850791    ( 0.0000,  0.0000,  0.0000)
  10 O      7.750782    0.923741    8.323928    ( 0.0000,  0.0000,  0.0000)
  11 O      2.518424    2.887861    8.350100    ( 0.0000,  0.0000,  0.0000)
  12 O      1.081783    2.902627   11.004769    ( 0.0000,  0.0000,  0.0000)
  13 O      6.283982    0.926535   10.965337    ( 0.0000,  0.0000,  0.0000)
  14 Ti     4.396521    0.982515   11.932109    ( 0.0000,  0.0000,  0.0000)
  15 Ti     9.564875    2.822149   11.894179    ( 0.0000,  0.0000,  0.0000)
  16 Ti     2.006896    2.861589   12.533651    ( 0.0000,  0.0000,  0.0000)
  17 Ti     7.192842    0.939857   12.492186    ( 0.0000,  0.0000,  0.0000)
  18 O      2.556513    0.967162   12.716264    ( 0.0000,  0.0000,  0.0000)
  19 O      7.733967    2.846599   12.728730    ( 0.0000,  0.0000,  0.0000)
  20 O      0.374252    2.848556   13.396133    ( 0.0000,  0.0000,  0.0000)
  21 O      5.574299    1.037185   13.356739    ( 0.0000,  0.0000,  0.0000)
  22 O      9.169059    0.942839   11.926479    ( 0.0000,  0.0000,  0.0000)
  23 O      3.957756    2.909142   11.919632    ( 0.0000,  0.0000,  0.0000)
  24 O      9.990889    6.696232    7.341894    ( 0.0000,  0.0000,  0.0000)
  25 O      4.511960    4.787917    8.184082    ( 0.0000,  0.0000,  0.0000)
  26 Ti     2.724858    4.779771    7.960807    ( 0.0000,  0.0000,  0.0000)
  27 Ti     8.145479    6.707698    8.192011    ( 0.0000,  0.0000,  0.0000)
  28 Ti     0.630398    6.695439    9.077253    ( 0.0000,  0.0000,  0.0000)
  29 Ti     6.062248    4.766294    9.148169    ( 0.0000,  0.0000,  0.0000)
  30 O      1.023957    4.767147    8.931551    ( 0.0000,  0.0000,  0.0000)
  31 O      6.358432    6.708779    8.938070    ( 0.0000,  0.0000,  0.0000)
  32 O      9.235162    6.764411    9.751167    ( 0.0000,  0.0000,  0.0000)
  33 O      7.850578    4.773562    8.386917    ( 0.0000,  0.0000,  0.0000)
  34 O      2.498268    6.663844    8.333080    ( 0.0000,  0.0000,  0.0000)
  35 O      1.055430    6.522305   11.054254    ( 0.0000,  0.0000,  0.0000)
  36 O      5.832449    4.738118   10.933484    ( 0.0000,  0.0000,  0.0000)
  37 Ti     4.447093    4.789049   12.241572    ( 0.0000,  0.0000,  0.0000)
  38 Ti     9.406316    6.649904   11.640909    ( 0.0000,  0.0000,  0.0000)
  39 Ti     2.037233    6.626075   12.641820    ( 0.0000,  0.0000,  0.0000)
  40 Ti     7.435951    4.754797   13.042897    ( 0.0000,  0.0000,  0.0000)
  41 O      2.547612    4.738717   12.929224    ( 0.0000,  0.0000,  0.0000)
  42 O      7.631399    6.667273   12.514142    ( 0.0000,  0.0000,  0.0000)
  43 O      0.313244    6.679102   13.458180    ( 0.0000,  0.0000,  0.0000)
  44 O      5.651700    4.786261   13.573968    ( 0.0000,  0.0000,  0.0000)
  45 O      9.085061    4.772814   11.794148    ( 0.0000,  0.0000,  0.0000)
  46 O      3.948694    6.595715   11.832332    ( 0.0000,  0.0000,  0.0000)
  47 O      9.941219   10.526766    7.424162    ( 0.0000,  0.0000,  0.0000)
  48 O      4.793811    8.598035    7.389240    ( 0.0000,  0.0000,  0.0000)
  49 Ti     2.924043    8.598447    8.231525    ( 0.0000,  0.0000,  0.0000)
  50 Ti     8.168624   10.568713    8.307193    ( 0.0000,  0.0000,  0.0000)
  51 Ti     0.689842   10.519812    9.160804    ( 0.0000,  0.0000,  0.0000)
  52 Ti     5.895270    8.633917    8.910762    ( 0.0000,  0.0000,  0.0000)
  53 O      1.085423    8.597422    8.995679    ( 0.0000,  0.0000,  0.0000)
  54 O      6.252646   10.528029    8.921193    ( 0.0000,  0.0000,  0.0000)
  55 O      9.220059   10.568411    9.844708    ( 0.0000,  0.0000,  0.0000)
  56 O      4.059029    8.507535    9.748930    ( 0.0000,  0.0000,  0.0000)
  57 O      7.758726    8.628199    8.273162    ( 0.0000,  0.0000,  0.0000)
  58 O      2.566398   10.490594    8.371621    ( 0.0000,  0.0000,  0.0000)
  59 O      1.062525   10.538591   11.074225    ( 0.0000,  0.0000,  0.0000)
  60 O      6.216780    8.694436   11.015477    ( 0.0000,  0.0000,  0.0000)
  61 Ti     4.246298    8.614380   11.643745    ( 0.0000,  0.0000,  0.0000)
  62 Ti     9.554368   10.561177   11.927563    ( 0.0000,  0.0000,  0.0000)
  63 Ti     2.071608   10.542920   12.803059    ( 0.0000,  0.0000,  0.0000)
  64 Ti     7.208814    8.649321   12.536283    ( 0.0000,  0.0000,  0.0000)
  65 O      2.497796    8.548756   12.436733    ( 0.0000,  0.0000,  0.0000)
  66 O      7.661786   10.527035   12.720205    ( 0.0000,  0.0000,  0.0000)
  67 O      0.370329   10.528878   13.454545    ( 0.0000,  0.0000,  0.0000)
  68 O      5.301247    8.621264   13.412715    ( 0.0000,  0.0000,  0.0000)
  69 O      9.010556    8.605906   11.811960    ( 0.0000,  0.0000,  0.0000)
  70 O      3.965380   10.506383   11.784478    ( 0.0000,  0.0000,  0.0000)
  71 O      9.924325   14.342583    7.441007    ( 0.0000,  0.0000,  0.0000)
  72 O      4.751345   12.420255    7.419069    ( 0.0000,  0.0000,  0.0000)
  73 Ti     2.956521   12.425773    8.321746    ( 0.0000,  0.0000,  0.0000)
  74 Ti     8.154962   14.365639    8.334509    ( 0.0000,  0.0000,  0.0000)
  75 Ti     0.650324   14.339133    8.977444    ( 0.0000,  0.0000,  0.0000)
  76 Ti     5.825252   12.455807    8.942724    ( 0.0000,  0.0000,  0.0000)
  77 O      1.076745   12.417342    8.959204    ( 0.0000,  0.0000,  0.0000)
  78 O      6.230080   14.350295    8.927239    ( 0.0000,  0.0000,  0.0000)
  79 O      9.212773   14.346204    9.869863    ( 0.0000,  0.0000,  0.0000)
  80 O      4.047363   12.465565    9.835258    ( 0.0000,  0.0000,  0.0000)
  81 O      7.738576   12.452498    8.352645    ( 0.0000,  0.0000,  0.0000)
  82 O      2.551770   14.335367    8.361171    ( 0.0000,  0.0000,  0.0000)
  83 O      1.094543   14.346882   10.993174    ( 0.0000,  0.0000,  0.0000)
  84 O      6.264745   12.461665   10.958793    ( 0.0000,  0.0000,  0.0000)
  85 Ti     4.367956   12.414806   11.900701    ( 0.0000,  0.0000,  0.0000)
  86 Ti     9.578984   14.351931   11.966865    ( 0.0000,  0.0000,  0.0000)
  87 Ti     2.036772   14.354341   12.504194    ( 0.0000,  0.0000,  0.0000)
  88 Ti     7.155162   12.455387   12.487268    ( 0.0000,  0.0000,  0.0000)
  89 O      2.556990   12.444407   12.713667    ( 0.0000,  0.0000,  0.0000)
  90 O      7.705738   14.343834   12.722855    ( 0.0000,  0.0000,  0.0000)
  91 O      0.421474   14.338506   13.397059    ( 0.0000,  0.0000,  0.0000)
  92 O      5.537319   12.387732   13.346388    ( 0.0000,  0.0000,  0.0000)
  93 O      9.154463   12.425156   11.953429    ( 0.0000,  0.0000,  0.0000)
  94 O      4.010938   14.350243   11.936530    ( 0.0000,  0.0000,  0.0000)
  95 V      3.988420    8.692907   14.696122    ( 0.0000,  0.0000,  0.0000)
  96 O      3.020990   10.104114   14.484796    ( 0.0000,  0.0000,  0.0000)
  97 O      2.980176    7.103897   14.567990    ( 0.0000,  0.0000,  0.0000)
  98 O      4.623620    8.700130   16.151847    ( 0.0000,  0.0000,  0.0000)
  99 V      9.242810    6.668312   14.740401    ( 0.0000,  0.0000,  0.0000)
 100 O      8.320294    5.133220   14.609367    ( 0.0000,  0.0000,  0.0000)
 101 O      8.092330    8.160260   14.576209    ( 0.0000,  0.0000,  0.0000)
 102 O      9.942274    6.756850   16.155874    ( 0.0000,  0.0000,  0.0000)
 103 H      8.088021    8.817470   15.297009    ( 0.0000,  0.0000,  0.0000)
 104 H      2.872472    6.513845   15.335653    ( 0.0000,  0.0000,  0.0000)

Unit cell:
           periodic     x           y           z      points  spacing
  1. axis:    yes   10.341746    0.000000    0.000000    54     0.1915
  2. axis:    yes   -0.000000   15.289380    0.000000    80     0.1911
  3. axis:    yes    0.000000    0.000000   23.497201   125     0.1880

  Lengths:  10.341746  15.289380  23.497201
  Angles:   90.000000  90.000000  90.000000

Effective grid spacing dv^(1/3) = 0.1902

                     log10-error:    total        iterations:
           time      wfs    density  energy       fermi  poisson
iter:   1  11:26:18  -2.50   +inf  -859.638850    3             
iter:   2  11:26:41  -3.48  -2.89  -859.588487    3             
iter:   3  11:27:03  -4.18  -2.97  -859.578908    3             
iter:   4  11:27:25  -3.39  -3.06  -859.561532    3             
iter:   5  11:27:47  -4.20  -3.23  -859.559912    3             
iter:   6  11:28:09  -4.64  -3.30  -859.557428    3             
iter:   7  11:28:32  -4.56  -3.35  -859.555575    3             
iter:   8  11:28:54  -4.62  -3.45  -859.553557    3             
iter:   9  11:29:16  -4.63  -3.72  -859.554480    3             
iter:  10  11:29:38  -5.84  -3.82  -859.553823    2             
iter:  11  11:30:01  -5.33  -3.88  -859.554100    2             
iter:  12  11:30:23  -6.13  -4.03  -859.553745    2             
iter:  13  11:30:45  -5.56  -4.11  -859.553972    2             
iter:  14  11:31:07  -6.02  -4.11  -859.553699    2             
iter:  15  11:31:30  -6.68  -4.27  -859.553676    2             
iter:  16  11:31:52  -6.61  -4.41  -859.553774    2             
iter:  17  11:32:14  -6.82  -4.51  -859.553698    2             
iter:  18  11:32:36  -7.49  -4.70  -859.553787    2             

Converged after 18 iterations.

Dipole moment: (-1.684080, 1.050256, -0.643610) |e|*Ang

Energy contributions relative to reference atoms: (reference = -935653.237240)

Kinetic:       +627.166316
Potential:     -793.170396
External:        +0.000000
XC:            -699.684313
Entropy (-ST):   -0.540366
Local:           +6.404789
--------------------------
Free energy:   -859.823970
Extrapolated:  -859.553787

Fermi level: -1.22891

Showing all kpts
 Kpt  Band  Eigenvalues  Occupancy
  0   411     -3.15727    1.00000
  0   412     -1.15269    0.31817
  0   413     -1.12651    0.26425
  0   414     -1.06635    0.16444

  1   411     -3.15776    1.00000
  1   412     -1.14841    0.30896
  1   413     -1.12885    0.26883
  1   414     -1.05520    0.14968



Forces in eV/Ang:
  0 O    -1.57080   -0.09721    1.23682
  1 O    -1.09625    0.01715    1.23046
  2 Ti    2.51616   -0.00395    1.11585
  3 Ti    2.46121    0.28374    0.54602
  4 Ti    0.19392    0.10297   -1.60070
  5 Ti   -1.72374    0.10583   -1.14532
  6 O     0.30781   -0.03294   -0.03639
  7 O     0.15781    0.25544   -0.25501
  8 O    -1.48372    0.00731    0.33405
  9 O    -0.68555   -0.05194   -0.12488
 10 O     0.21581    0.43878   -1.05880
 11 O     0.41933   -0.18397   -1.03870
 12 O    -0.01362   -0.02459    0.02485
 13 O    -0.12418    0.09363    0.00286
 14 Ti   -0.08525   -0.01710    0.01957
 15 Ti    0.37884    0.22090    0.74455
 16 Ti   -0.06610    0.02705    0.06853
 17 Ti   -0.08641    0.07757   -0.00048
 18 O    -0.04395    0.04970    0.14111
 19 O     0.01256    0.04579    0.11978
 20 O    -0.25214    0.02003   -0.61539
 21 O    -0.06135   -0.08854    0.02825
 22 O     0.12922    0.11538   -0.06884
 23 O     0.15696    0.03803   -0.04349
 24 O    -1.63287   -0.06889    2.17860
 25 O    -0.16773   -0.01989   -0.17097
 26 Ti   -0.25961    0.03618    0.75612
 27 Ti    3.18700    0.56374   -0.10125
 28 Ti    0.66438    0.00835   -2.77117
 29 Ti   -0.40352    0.09344    0.31284
 30 O     0.22647    0.08116   -0.03142
 31 O    -0.15360   -0.36779   -0.06535
 32 O    -1.80281   -0.00927    0.77979
 33 O    -0.08262   -0.23593   -0.84218
 34 O     0.41614    0.13144   -1.10953
 35 O    -0.47875    0.17027    0.13127
 36 O     0.05537    0.03431    0.11309
 37 Ti    0.18741   -0.24462   -0.00700
 38 Ti    0.72832    0.04347    0.58219
 39 Ti    0.54218   -0.00175   -0.49656
 40 Ti    0.07414    0.07110    0.01125
 41 O    -0.14795    0.18306    0.06505
 42 O     0.23287   -0.08739   -0.05582
 43 O    -1.96119    0.08767    0.50931
 44 O    -0.13287    0.02485   -0.03377
 45 O     0.04469   -0.12056    0.19913
 46 O    -0.28359   -0.04772    0.25424
 47 O    -1.64893    0.01592    2.02517
 48 O    -1.09151   -0.02090    1.19415
 49 Ti    2.51500   -0.01926    0.99790
 50 Ti    3.71486   -0.16543    0.11974
 51 Ti   -1.05055    0.04677   -1.94857
 52 Ti   -1.27293    0.21650   -1.30517
 53 O     0.24647   -0.20628    0.05354
 54 O    -0.01614   -0.03110   -0.14243
 55 O    -0.94717   -0.09835    0.67054
 56 O    -0.88672   -0.02498    0.01021
 57 O     0.17918   -0.12841   -0.79073
 58 O     0.27103    0.02530   -0.78608
 59 O    -0.30659   -0.05339    0.25470
 60 O    -0.11089   -0.21918    0.16792
 61 Ti    0.15372    0.25256   -0.00482
 62 Ti    0.99172   -0.04266    0.24945
 63 Ti   -0.33982   -0.00172   -0.05302
 64 Ti   -0.02289    0.13197    0.10559
 65 O    -0.07470   -0.16772    0.01707
 66 O     0.05864    0.01077    0.19385
 67 O    -0.53143   -0.13319   -0.46102
 68 O     0.02487   -0.06550   -0.05599
 69 O     0.38996   -0.01617    0.23707
 70 O     0.11189   -0.03254    0.09557
 71 O    -1.16763    0.04500    1.30009
 72 O    -1.17904    0.07441    1.17526
 73 Ti    2.54943   -0.10082    0.97123
 74 Ti    2.83937   -1.00069    0.89367
 75 Ti   -0.95338   -0.21932   -1.24292
 76 Ti   -1.07429   -0.46462   -1.34624
 77 O     0.28121    0.17592   -0.00713
 78 O     0.22882    0.08434   -0.22383
 79 O    -0.69614    0.01742   -0.04968
 80 O    -0.77854   -0.03406   -0.12998
 81 O     0.02907    0.20828   -0.92591
 82 O     0.23102    0.22764   -0.96044
 83 O    -0.14153    0.02008    0.11684
 84 O    -0.06899   -0.00461    0.00259
 85 Ti    0.03352   -0.04650    0.03484
 86 Ti    0.23755   -0.38950    0.09196
 87 Ti    0.11950   -0.11403   -0.08679
 88 Ti    0.04675   -0.20178   -0.05929
 89 O    -0.04438    0.02455    0.14111
 90 O     0.03121    0.04262    0.17820
 91 O    -0.18430    0.05662   -0.22909
 92 O     0.00887    0.03174    0.00648
 93 O     0.06062    0.05500    0.14287
 94 O    -0.00029    0.17692    0.01904
 95 V     0.06154    0.03710    0.07809
 96 O     0.03210    0.08121   -0.02753
 97 O    -0.18057   -0.06812   -0.05073
 98 O     0.08645    0.05202    0.01544
 99 V     0.43926    0.02221   -0.26398
100 O     0.17322    0.02395    0.11176
101 O     0.03783    0.05961   -0.02588
102 O    -0.00600   -0.04605    0.12447
103 H     0.02133    0.03773    0.05656
104 H     0.06283   -0.00809    0.08418

System changes: positions 

Initializing position-dependent things.

Density initialized from wave functions
          .------------------------.  
         /|                        |  
        / |                        |  
       /  |                        |  
      /   |                        |  
     /    |                        |  
    /     |                        |  
   /      |                        |  
  /       |                        |  
 *        |                        |  
 |        |                        |  
 |        |                        |  
 |        |                        |  
 |        O      O                 |  
 |        |   Oi      O   H OO     |  
 |      O | H  OV  O     OTi     Ti|  
 |        | Oi     Oi     OV  O    |  
 |    O   |      O     OOi    TiO  |  
 |        OTO    O          O      |  
 |        Oi    TiO  OTi O   Ti    |  
 |  O     |O  OTi     Ti   OTiO  O |  
 |     OTii  O OO    OO   O        |  
 |      OO| O     OTii    Tii      |  
 |   OTi  | Tii     O   OO     O   |  
 |    O   |O     OTi     Oi        |  
 |  Ti    TO   O  O    O     O     |  
 |  O    O|     Ti    Ti           |  
 |       Ti         O      O       |  
 |        |  O                     |  
 |        .------------------------.  
 |       /                        /   
 |      /                        /    
 |     /                        /     
 |    /                        /      
 |   /                        /       
 |  /                        /        
 | /                        /         
 |/                        /          
 *------------------------*           

Positions:
   0 O      9.974517    2.862499    7.395923    ( 0.0000,  0.0000,  0.0000)
   1 O      4.751576    0.970856    7.433844    ( 0.0000,  0.0000,  0.0000)
   2 Ti     2.973752    0.965511    8.331948    ( 0.0000,  0.0000,  0.0000)
   3 Ti     8.189404    2.803522    8.288172    ( 0.0000,  0.0000,  0.0000)
   4 Ti     0.613369    2.836809    8.994488    ( 0.0000,  0.0000,  0.0000)
   5 Ti     5.856682    0.938662    8.958328    ( 0.0000,  0.0000,  0.0000)
   6 O      1.063899    0.953977    8.954538    ( 0.0000,  0.0000,  0.0000)
   7 O      6.332739    2.842687    8.933688    ( 0.0000,  0.0000,  0.0000)
   8 O      9.254147    2.761528    9.821154    ( 0.0000,  0.0000,  0.0000)
   9 O      4.054529    0.983467    9.850791    ( 0.0000,  0.0000,  0.0000)
  10 O      7.750782    0.923741    8.323928    ( 0.0000,  0.0000,  0.0000)
  11 O      2.518424    2.887861    8.350100    ( 0.0000,  0.0000,  0.0000)
  12 O      1.081361    2.902130   11.005026    ( 0.0000,  0.0000,  0.0000)
  13 O      6.281687    0.928331   10.965490    ( 0.0000,  0.0000,  0.0000)
  14 Ti     4.394799    0.982133   11.932526    ( 0.0000,  0.0000,  0.0000)
  15 Ti     9.572666    2.826678   11.908967    ( 0.0000,  0.0000,  0.0000)
  16 Ti     2.005166    2.862176   12.535333    ( 0.0000,  0.0000,  0.0000)
  17 Ti     7.190806    0.941438   12.492200    ( 0.0000,  0.0000,  0.0000)
  18 O      2.555765    0.968064   12.718938    ( 0.0000,  0.0000,  0.0000)
  19 O      7.734224    2.847398   12.730975    ( 0.0000,  0.0000,  0.0000)
  20 O      0.369399    2.848902   13.383742    ( 0.0000,  0.0000,  0.0000)
  21 O      5.573267    1.035475   13.357214    ( 0.0000,  0.0000,  0.0000)
  22 O      9.171519    0.945053   11.925121    ( 0.0000,  0.0000,  0.0000)
  23 O      3.960901    2.909807   11.918739    ( 0.0000,  0.0000,  0.0000)
  24 O      9.990889    6.696232    7.341894    ( 0.0000,  0.0000,  0.0000)
  25 O      4.511960    4.787917    8.184082    ( 0.0000,  0.0000,  0.0000)
  26 Ti     2.724858    4.779771    7.960807    ( 0.0000,  0.0000,  0.0000)
  27 Ti     8.145479    6.707698    8.192011    ( 0.0000,  0.0000,  0.0000)
  28 Ti     0.630398    6.695439    9.077253    ( 0.0000,  0.0000,  0.0000)
  29 Ti     6.062248    4.766294    9.148169    ( 0.0000,  0.0000,  0.0000)
  30 O      1.023957    4.767147    8.931551    ( 0.0000,  0.0000,  0.0000)
  31 O      6.358432    6.708779    8.938070    ( 0.0000,  0.0000,  0.0000)
  32 O      9.235162    6.764411    9.751167    ( 0.0000,  0.0000,  0.0000)
  33 O      7.850578    4.773562    8.386917    ( 0.0000,  0.0000,  0.0000)
  34 O      2.498268    6.663844    8.333080    ( 0.0000,  0.0000,  0.0000)
  35 O      1.046030    6.525597   11.056408    ( 0.0000,  0.0000,  0.0000)
  36 O      5.833549    4.738750   10.935623    ( 0.0000,  0.0000,  0.0000)
  37 Ti     4.450580    4.784541   12.241468    ( 0.0000,  0.0000,  0.0000)
  38 Ti     9.420659    6.650646   11.652140    ( 0.0000,  0.0000,  0.0000)
  39 Ti     2.048030    6.626040   12.632032    ( 0.0000,  0.0000,  0.0000)
  40 Ti     7.437225    4.756115   13.043029    ( 0.0000,  0.0000,  0.0000)
  41 O      2.544863    4.742255   12.930473    ( 0.0000,  0.0000,  0.0000)
  42 O      7.635874    6.665573   12.513078    ( 0.0000,  0.0000,  0.0000)
  43 O      0.274656    6.680806   13.468576    ( 0.0000,  0.0000,  0.0000)
  44 O      5.649203    4.786736   13.573296    ( 0.0000,  0.0000,  0.0000)
  45 O      9.085862    4.770488   11.797948    ( 0.0000,  0.0000,  0.0000)
  46 O      3.943430    6.594746   11.837225    ( 0.0000,  0.0000,  0.0000)
  47 O      9.941219   10.526766    7.424162    ( 0.0000,  0.0000,  0.0000)
  48 O      4.793811    8.598035    7.389240    ( 0.0000,  0.0000,  0.0000)
  49 Ti     2.924043    8.598447    8.231525    ( 0.0000,  0.0000,  0.0000)
  50 Ti     8.168624   10.568713    8.307193    ( 0.0000,  0.0000,  0.0000)
  51 Ti     0.689842   10.519812    9.160804    ( 0.0000,  0.0000,  0.0000)
  52 Ti     5.895270    8.633917    8.910762    ( 0.0000,  0.0000,  0.0000)
  53 O      1.085423    8.597422    8.995679    ( 0.0000,  0.0000,  0.0000)
  54 O      6.252646   10.528029    8.921193    ( 0.0000,  0.0000,  0.0000)
  55 O      9.220059   10.568411    9.844708    ( 0.0000,  0.0000,  0.0000)
  56 O      4.059029    8.507535    9.748930    ( 0.0000,  0.0000,  0.0000)
  57 O      7.758726    8.628199    8.273162    ( 0.0000,  0.0000,  0.0000)
  58 O      2.566398   10.490594    8.371621    ( 0.0000,  0.0000,  0.0000)
  59 O      1.056456   10.537551   11.078994    ( 0.0000,  0.0000,  0.0000)
  60 O      6.214744    8.690223   11.018819    ( 0.0000,  0.0000,  0.0000)
  61 Ti     4.249115    8.619143   11.643739    ( 0.0000,  0.0000,  0.0000)
  62 Ti     9.574096   10.560444   11.932604    ( 0.0000,  0.0000,  0.0000)
  63 Ti     2.064630   10.542878   12.802082    ( 0.0000,  0.0000,  0.0000)
  64 Ti     7.208089    8.651842   12.538201    ( 0.0000,  0.0000,  0.0000)
  65 O      2.496467    8.545460   12.437027    ( 0.0000,  0.0000,  0.0000)
  66 O      7.662872   10.527286   12.723960    ( 0.0000,  0.0000,  0.0000)
  67 O      0.359998   10.526312   13.445295    ( 0.0000,  0.0000,  0.0000)
  68 O      5.301828    8.620002   13.411584    ( 0.0000,  0.0000,  0.0000)
  69 O      9.018039    8.605541   11.816495    ( 0.0000,  0.0000,  0.0000)
  70 O      3.967635   10.505773   11.786282    ( 0.0000,  0.0000,  0.0000)
  71 O      9.924325   14.342583    7.441007    ( 0.0000,  0.0000,  0.0000)
  72 O      4.751345   12.420255    7.419069    ( 0.0000,  0.0000,  0.0000)
  73 Ti     2.956521   12.425773    8.321746    ( 0.0000,  0.0000,  0.0000)
  74 Ti     8.154962   14.365639    8.334509    ( 0.0000,  0.0000,  0.0000)
  75 Ti     0.650324   14.339133    8.977444    ( 0.0000,  0.0000,  0.0000)
  76 Ti     5.825252   12.455807    8.942724    ( 0.0000,  0.0000,  0.0000)
  77 O      1.076745   12.417342    8.959204    ( 0.0000,  0.0000,  0.0000)
  78 O      6.230080   14.350295    8.927239    ( 0.0000,  0.0000,  0.0000)
  79 O      9.212773   14.346204    9.869863    ( 0.0000,  0.0000,  0.0000)
  80 O      4.047363   12.465565    9.835258    ( 0.0000,  0.0000,  0.0000)
  81 O      7.738576   12.452498    8.352645    ( 0.0000,  0.0000,  0.0000)
  82 O      2.551770   14.335367    8.361171    ( 0.0000,  0.0000,  0.0000)
  83 O      1.091714   14.347310   10.995391    ( 0.0000,  0.0000,  0.0000)
  84 O      6.263512   12.461590   10.958955    ( 0.0000,  0.0000,  0.0000)
  85 Ti     4.368430   12.413869   11.901360    ( 0.0000,  0.0000,  0.0000)
  86 Ti     9.583938   14.344134   11.968729    ( 0.0000,  0.0000,  0.0000)
  87 Ti     2.039089   14.352025   12.502546    ( 0.0000,  0.0000,  0.0000)
  88 Ti     7.155914   12.451431   12.486026    ( 0.0000,  0.0000,  0.0000)
  89 O      2.556233   12.445022   12.716351    ( 0.0000,  0.0000,  0.0000)
  90 O      7.706341   14.344712   12.726302    ( 0.0000,  0.0000,  0.0000)
  91 O      0.417719   14.339637   13.392468    ( 0.0000,  0.0000,  0.0000)
  92 O      5.537618   12.388350   13.346544    ( 0.0000,  0.0000,  0.0000)
  93 O      9.155538   12.426328   11.956166    ( 0.0000,  0.0000,  0.0000)
  94 O      4.010993   14.353753   11.936888    ( 0.0000,  0.0000,  0.0000)
  95 V      3.989483    8.693767   14.697580    ( 0.0000,  0.0000,  0.0000)
  96 O      3.021746   10.105574   14.484364    ( 0.0000,  0.0000,  0.0000)
  97 O      2.976730    7.102538   14.567049    ( 0.0000,  0.0000,  0.0000)
  98 O      4.625324    8.701118   16.152215    ( 0.0000,  0.0000,  0.0000)
  99 V      9.251867    6.668749   14.735250    ( 0.0000,  0.0000,  0.0000)
 100 O      8.323592    5.133604   14.611622    ( 0.0000,  0.0000,  0.0000)
 101 O      8.092936    8.161524   14.575698    ( 0.0000,  0.0000,  0.0000)
 102 O      9.942044    6.755944   16.158142    ( 0.0000,  0.0000,  0.0000)
 103 H      8.088434    8.818212   15.298105    ( 0.0000,  0.0000,  0.0000)
 104 H      2.873681    6.513692   15.337283    ( 0.0000,  0.0000,  0.0000)

Unit cell:
           periodic     x           y           z      points  spacing
  1. axis:    yes   10.341746    0.000000    0.000000    54     0.1915
  2. axis:    yes   -0.000000   15.289380    0.000000    80     0.1911
  3. axis:    yes    0.000000    0.000000   23.497201   125     0.1880

  Lengths:  10.341746  15.289380  23.497201
  Angles:   90.000000  90.000000  90.000000

Effective grid spacing dv^(1/3) = 0.1902

                     log10-error:    total        iterations:
           time      wfs    density  energy       fermi  poisson
iter:   1  11:33:13  -2.54   +inf  -859.801966    4             
iter:   2  11:33:36  -3.53  -2.92  -859.749627    3             
iter:   3  11:33:58  -4.19  -3.01  -859.743878    3             
iter:   4  11:34:20  -3.65  -3.11  -859.730788    3             
iter:   5  11:34:42  -4.07  -3.26  -859.728194    3             
iter:   6  11:35:05  -4.55  -3.37  -859.726034    3             
iter:   7  11:35:27  -4.79  -3.41  -859.724388    2             
iter:   8  11:35:49  -4.85  -3.53  -859.723034    2             
iter:   9  11:36:11  -4.99  -3.75  -859.724422    3             
iter:  10  11:36:33  -5.92  -3.86  -859.723451    3             
iter:  11  11:36:56  -5.55  -3.92  -859.723608    2             
iter:  12  11:37:18  -6.29  -4.08  -859.723532    2             
iter:  13  11:37:40  -6.02  -4.15  -859.723641    2             
iter:  14  11:38:02  -6.21  -4.19  -859.723440    2             
iter:  15  11:38:25  -7.06  -4.35  -859.723477    2             
iter:  16  11:38:47  -6.57  -4.41  -859.723545    2             
iter:  17  11:39:09  -6.84  -4.62  -859.723481    2             
iter:  18  11:39:31  -7.91  -4.90  -859.723459    2             

Converged after 18 iterations.

Dipole moment: (-2.741955, 0.981379, -0.629337) |e|*Ang

Energy contributions relative to reference atoms: (reference = -935653.237240)

Kinetic:       +628.118865
Potential:     -794.027089
External:        +0.000000
XC:            -699.941116
Entropy (-ST):   -0.546485
Local:           +6.399124
--------------------------
Free energy:   -859.996701
Extrapolated:  -859.723459

Fermi level: -1.21829

Showing all kpts
 Kpt  Band  Eigenvalues  Occupancy
  0   411     -3.15946    1.00000
  0   412     -1.13859    0.31067
  0   413     -1.11562    0.26373
  0   414     -1.05430    0.16248

  1   411     -3.15997    1.00000
  1   412     -1.13316    0.29915
  1   413     -1.11871    0.26977
  1   414     -1.04280    0.14743



Forces in eV/Ang:
  0 O    -1.56408   -0.09665    1.22879
  1 O    -1.09662    0.01675    1.22983
  2 Ti    2.51239    0.00442    1.11071
  3 Ti    2.51921    0.27878    0.61043
  4 Ti    0.11714    0.09526   -1.60474
  5 Ti   -1.71607    0.10832   -1.13701
  6 O     0.31377   -0.04746   -0.03309
  7 O     0.14516    0.27111   -0.25092
  8 O    -1.47555    0.02042    0.28169
  9 O    -0.69770   -0.05147   -0.12103
 10 O     0.20889    0.43620   -1.06492
 11 O     0.42748   -0.18344   -1.03707
 12 O     0.06574   -0.01008    0.08886
 13 O    -0.13493    0.08966   -0.00606
 14 Ti   -0.01897   -0.00779    0.01342
 15 Ti    0.06434    0.07617    0.39063
 16 Ti    0.15294    0.01321   -0.08401
 17 Ti    0.05850    0.03483   -0.02375
 18 O    -0.07400    0.07320    0.14287
 19 O    -0.00956    0.06390    0.14852
 20 O    -0.17061    0.03868   -0.21281
 21 O    -0.09640   -0.07893    0.02904
 22 O     0.10050    0.08414   -0.04118
 23 O     0.07197    0.05634   -0.01680
 24 O    -1.61719   -0.06656    2.17261
 25 O    -0.14759   -0.01877   -0.16118
 26 Ti   -0.26866    0.02883    0.74597
 27 Ti    3.23683    0.56333   -0.03354
 28 Ti    0.54070   -0.00334   -2.83361
 29 Ti   -0.38774    0.08880    0.30239
 30 O     0.23257    0.09651   -0.01428
 31 O    -0.16777   -0.37085   -0.06360
 32 O    -1.77368   -0.01645    0.80718
 33 O    -0.10377   -0.23333   -0.84818
 34 O     0.42204    0.13653   -1.09916
 35 O    -0.34123    0.14021    0.26167
 36 O     0.04771    0.04671    0.09880
 37 Ti    0.17679   -0.26978   -0.02377
 38 Ti    0.44034    0.07723    0.45316
 39 Ti    0.43916    0.00118   -0.31967
 40 Ti    0.13629    0.09293    0.04648
 41 O    -0.17525    0.12102    0.05299
 42 O     0.20105   -0.05412   -0.04214
 43 O    -1.26584    0.07726    0.09226
 44 O    -0.11010    0.01974    0.00224
 45 O     0.07042   -0.08737    0.20404
 46 O    -0.34540   -0.03039    0.21336
 47 O    -1.61011    0.01551    2.03562
 48 O    -1.08366   -0.02021    1.20018
 49 Ti    2.51595   -0.03088    0.97309
 50 Ti    3.72639   -0.16626    0.15772
 51 Ti   -1.13270    0.04164   -2.09253
 52 Ti   -1.26391    0.20946   -1.31801
 53 O     0.24667   -0.17559    0.07613
 54 O    -0.02173   -0.03920   -0.13386
 55 O    -0.92238   -0.09535    0.62119
 56 O    -0.88748   -0.02510    0.04784
 57 O     0.16936   -0.12354   -0.79398
 58 O     0.26294    0.03312   -0.76889
 59 O    -0.16296   -0.04069    0.23477
 60 O    -0.12781   -0.19998    0.11237
 61 Ti    0.18303    0.24567   -0.03275
 62 Ti    0.50460   -0.08883    0.07378
 63 Ti   -0.06942   -0.01449   -0.02541
 64 Ti    0.12949    0.11995    0.14236
 65 O    -0.10918   -0.08578    0.01908
 66 O     0.05556   -0.01475    0.16706
 67 O    -0.37444   -0.12388   -0.16799
 68 O    -0.00802   -0.05832   -0.01359
 69 O     0.34689    0.01033    0.23285
 70 O     0.04312   -0.02384    0.10286
 71 O    -1.15551    0.04228    1.30078
 72 O    -1.18123    0.07313    1.17714
 73 Ti    2.55700   -0.09303    0.95163
 74 Ti    2.85277   -0.99343    0.91544
 75 Ti   -0.98658   -0.18940   -1.25892
 76 Ti   -1.06306   -0.45497   -1.35144
 77 O     0.27638    0.14748    0.01702
 78 O     0.22492    0.07742   -0.22163
 79 O    -0.69418    0.00614   -0.08783
 80 O    -0.78598   -0.03714   -0.10438
 81 O     0.02423    0.20355   -0.92792
 82 O     0.23086    0.21782   -0.95441
 83 O    -0.07658   -0.00446    0.08998
 84 O    -0.08930   -0.01439   -0.01210
 85 Ti    0.09779   -0.00328    0.03502
 86 Ti    0.03578   -0.20060    0.03895
 87 Ti    0.09024   -0.04191   -0.06479
 88 Ti    0.10367   -0.14666   -0.02272
 89 O    -0.07207   -0.04526    0.13330
 90 O     0.02377    0.00989    0.15012
 91 O    -0.05393    0.03025   -0.10508
 92 O    -0.02965    0.02519   -0.01280
 93 O     0.08284    0.00070    0.14042
 94 O    -0.03203    0.09244    0.02264
 95 V     0.03019   -0.00471    0.01913
 96 O    -0.01385    0.08311   -0.07213
 97 O    -0.17609   -0.03723   -0.02548
 98 O     0.08885    0.05251    0.03683
 99 V     0.05744    0.03305    0.07264
100 O     0.15585    0.03733    0.04695
101 O     0.07639    0.03815    0.00157
102 O    -0.00561   -0.03850    0.03120
103 H     0.02196    0.00158    0.02488
104 H     0.05823    0.00603    0.04591

System changes: positions 

Initializing position-dependent things.

Density initialized from wave functions
          .------------------------.  
         /|                        |  
        / |                        |  
       /  |                        |  
      /   |                        |  
     /    |                        |  
    /     |                        |  
   /      |                        |  
  /       |                        |  
 *        |                        |  
 |        |                        |  
 |        |                        |  
 |        |                        |  
 |        O      O                 |  
 |        |   Oi      O   H OO     |  
 |      O | H  OV  O     OTi     Ti|  
 |        | Oi     Oi     OV  O    |  
 |    O   |      O     OOi    TiO  |  
 |        OTO    O          O      |  
 |        Oi    TiO  OTi O   Ti    |  
 |  O     |O  OTi     Ti   OTiO  O |  
 |     OTii  O OO    OO   O        |  
 |      OO| O     OTii    Tii      |  
 |   OTi  | Tii     O   OO     O   |  
 |    O   |O     OTi     Oi        |  
 |  Ti    TO   O  O    O     O     |  
 |  O    O|     Ti    Ti           |  
 |       Ti         O      O       |  
 |        |  O                     |  
 |        .------------------------.  
 |       /                        /   
 |      /                        /    
 |     /                        /     
 |    /                        /      
 |   /                        /       
 |  /                        /        
 | /                        /         
 |/                        /          
 *------------------------*           

Positions:
   0 O      9.974517    2.862499    7.395923    ( 0.0000,  0.0000,  0.0000)
   1 O      4.751576    0.970856    7.433844    ( 0.0000,  0.0000,  0.0000)
   2 Ti     2.973752    0.965511    8.331948    ( 0.0000,  0.0000,  0.0000)
   3 Ti     8.189404    2.803522    8.288172    ( 0.0000,  0.0000,  0.0000)
   4 Ti     0.613369    2.836809    8.994488    ( 0.0000,  0.0000,  0.0000)
   5 Ti     5.856682    0.938662    8.958328    ( 0.0000,  0.0000,  0.0000)
   6 O      1.063899    0.953977    8.954538    ( 0.0000,  0.0000,  0.0000)
   7 O      6.332739    2.842687    8.933688    ( 0.0000,  0.0000,  0.0000)
   8 O      9.254147    2.761528    9.821154    ( 0.0000,  0.0000,  0.0000)
   9 O      4.054529    0.983467    9.850791    ( 0.0000,  0.0000,  0.0000)
  10 O      7.750782    0.923741    8.323928    ( 0.0000,  0.0000,  0.0000)
  11 O      2.518424    2.887861    8.350100    ( 0.0000,  0.0000,  0.0000)
  12 O      1.082263    2.901724   11.006513    ( 0.0000,  0.0000,  0.0000)
  13 O      6.278396    0.930703   10.965583    ( 0.0000,  0.0000,  0.0000)
  14 Ti     4.393712    0.981761   11.933000    ( 0.0000,  0.0000,  0.0000)
  15 Ti     9.577372    2.830166   11.922429    ( 0.0000,  0.0000,  0.0000)
  16 Ti     2.006870    2.862747   12.534827    ( 0.0000,  0.0000,  0.0000)
  17 Ti     7.190670    0.942804   12.491772    ( 0.0000,  0.0000,  0.0000)
  18 O      2.554206    0.969729   12.722602    ( 0.0000,  0.0000,  0.0000)
  19 O      7.734144    2.848801   12.734580    ( 0.0000,  0.0000,  0.0000)
  20 O      0.364389    2.849721   13.374468    ( 0.0000,  0.0000,  0.0000)
  21 O      5.571251    1.033324   13.357835    ( 0.0000,  0.0000,  0.0000)
  22 O      9.174293    0.947452   11.923794    ( 0.0000,  0.0000,  0.0000)
  23 O      3.963586    2.911040   11.918014    ( 0.0000,  0.0000,  0.0000)
  24 O      9.990889    6.696232    7.341894    ( 0.0000,  0.0000,  0.0000)
  25 O      4.511960    4.787917    8.184082    ( 0.0000,  0.0000,  0.0000)
  26 Ti     2.724858    4.779771    7.960807    ( 0.0000,  0.0000,  0.0000)
  27 Ti     8.145479    6.707698    8.192011    ( 0.0000,  0.0000,  0.0000)
  28 Ti     0.630398    6.695439    9.077253    ( 0.0000,  0.0000,  0.0000)
  29 Ti     6.062248    4.766294    9.148169    ( 0.0000,  0.0000,  0.0000)
  30 O      1.023957    4.767147    8.931551    ( 0.0000,  0.0000,  0.0000)
  31 O      6.358432    6.708779    8.938070    ( 0.0000,  0.0000,  0.0000)
  32 O      9.235162    6.764411    9.751167    ( 0.0000,  0.0000,  0.0000)
  33 O      7.850578    4.773562    8.386917    ( 0.0000,  0.0000,  0.0000)
  34 O      2.498268    6.663844    8.333080    ( 0.0000,  0.0000,  0.0000)
  35 O      1.035798    6.529510   11.061711    ( 0.0000,  0.0000,  0.0000)
  36 O      5.834921    4.739844   10.938241    ( 0.0000,  0.0000,  0.0000)
  37 Ti     4.455059    4.778006   12.241013    ( 0.0000,  0.0000,  0.0000)
  38 Ti     9.434740    6.652272   11.664942    ( 0.0000,  0.0000,  0.0000)
  39 Ti     2.060970    6.626049   12.622025    ( 0.0000,  0.0000,  0.0000)
  40 Ti     7.440107    4.758317   13.043856    ( 0.0000,  0.0000,  0.0000)
  41 O      2.540624    4.745866   12.931939    ( 0.0000,  0.0000,  0.0000)
  42 O      7.641354    6.663900   12.511904    ( 0.0000,  0.0000,  0.0000)
  43 O      0.235211    6.682939   13.474863    ( 0.0000,  0.0000,  0.0000)
  44 O      5.646282    4.787281   13.573081    ( 0.0000,  0.0000,  0.0000)
  45 O      9.087433    4.767965   11.803220    ( 0.0000,  0.0000,  0.0000)
  46 O      3.935128    6.593733   11.843102    ( 0.0000,  0.0000,  0.0000)
  47 O      9.941219   10.526766    7.424162    ( 0.0000,  0.0000,  0.0000)
  48 O      4.793811    8.598035    7.389240    ( 0.0000,  0.0000,  0.0000)
  49 Ti     2.924043    8.598447    8.231525    ( 0.0000,  0.0000,  0.0000)
  50 Ti     8.168624   10.568713    8.307193    ( 0.0000,  0.0000,  0.0000)
  51 Ti     0.689842   10.519812    9.160804    ( 0.0000,  0.0000,  0.0000)
  52 Ti     5.895270    8.633917    8.910762    ( 0.0000,  0.0000,  0.0000)
  53 O      1.085423    8.597422    8.995679    ( 0.0000,  0.0000,  0.0000)
  54 O      6.252646   10.528029    8.921193    ( 0.0000,  0.0000,  0.0000)
  55 O      9.220059   10.568411    9.844708    ( 0.0000,  0.0000,  0.0000)
  56 O      4.059029    8.507535    9.748930    ( 0.0000,  0.0000,  0.0000)
  57 O      7.758726    8.628199    8.273162    ( 0.0000,  0.0000,  0.0000)
  58 O      2.566398   10.490594    8.371621    ( 0.0000,  0.0000,  0.0000)
  59 O      1.050913   10.536373   11.085032    ( 0.0000,  0.0000,  0.0000)
  60 O      6.211685    8.684847   11.022353    ( 0.0000,  0.0000,  0.0000)
  61 Ti     4.253460    8.625456   11.643231    ( 0.0000,  0.0000,  0.0000)
  62 Ti     9.591774   10.558578   11.936151    ( 0.0000,  0.0000,  0.0000)
  63 Ti     2.060198   10.542561   12.801323    ( 0.0000,  0.0000,  0.0000)
  64 Ti     7.209951    8.655037   12.541484    ( 0.0000,  0.0000,  0.0000)
  65 O      2.494034    8.542543   12.437447    ( 0.0000,  0.0000,  0.0000)
  66 O      7.664270   10.527147   12.728577    ( 0.0000,  0.0000,  0.0000)
  67 O      0.348935   10.522987   13.438243    ( 0.0000,  0.0000,  0.0000)
  68 O      5.302033    8.618417   13.410848    ( 0.0000,  0.0000,  0.0000)
  69 O      9.027399    8.605535   11.822593    ( 0.0000,  0.0000,  0.0000)
  70 O      3.969415   10.505121   11.788870    ( 0.0000,  0.0000,  0.0000)
  71 O      9.924325   14.342583    7.441007    ( 0.0000,  0.0000,  0.0000)
  72 O      4.751345   12.420255    7.419069    ( 0.0000,  0.0000,  0.0000)
  73 Ti     2.956521   12.425773    8.321746    ( 0.0000,  0.0000,  0.0000)
  74 Ti     8.154962   14.365639    8.334509    ( 0.0000,  0.0000,  0.0000)
  75 Ti     0.650324   14.339133    8.977444    ( 0.0000,  0.0000,  0.0000)
  76 Ti     5.825252   12.455807    8.942724    ( 0.0000,  0.0000,  0.0000)
  77 O      1.076745   12.417342    8.959204    ( 0.0000,  0.0000,  0.0000)
  78 O      6.230080   14.350295    8.927239    ( 0.0000,  0.0000,  0.0000)
  79 O      9.212773   14.346204    9.869863    ( 0.0000,  0.0000,  0.0000)
  80 O      4.047363   12.465565    9.835258    ( 0.0000,  0.0000,  0.0000)
  81 O      7.738576   12.452498    8.352645    ( 0.0000,  0.0000,  0.0000)
  82 O      2.551770   14.335367    8.361171    ( 0.0000,  0.0000,  0.0000)
  83 O      1.089073   14.347432   10.997867    ( 0.0000,  0.0000,  0.0000)
  84 O      6.261484   12.461303   10.958955    ( 0.0000,  0.0000,  0.0000)
  85 Ti     4.370248   12.413422   11.902257    ( 0.0000,  0.0000,  0.0000)
  86 Ti     9.586936   14.337045   11.970282    ( 0.0000,  0.0000,  0.0000)
  87 Ti     2.041685   14.350216   12.500745    ( 0.0000,  0.0000,  0.0000)
  88 Ti     7.157981   12.447075   12.484992    ( 0.0000,  0.0000,  0.0000)
  89 O      2.554708   12.444563   12.719846    ( 0.0000,  0.0000,  0.0000)
  90 O      7.707018   14.345296   12.730466    ( 0.0000,  0.0000,  0.0000)
  91 O      0.415048   14.340683   13.388546    ( 0.0000,  0.0000,  0.0000)
  92 O      5.537340   12.389068   13.346394    ( 0.0000,  0.0000,  0.0000)
  93 O      9.157391   12.426922   11.959852    ( 0.0000,  0.0000,  0.0000)
  94 O      4.010475   14.356936   11.937444    ( 0.0000,  0.0000,  0.0000)
  95 V      3.990234    8.694204   14.698368    ( 0.0000,  0.0000,  0.0000)
  96 O      3.021952   10.107541   14.482947    ( 0.0000,  0.0000,  0.0000)
  97 O      2.972125    7.101265   14.566287    ( 0.0000,  0.0000,  0.0000)
  98 O      4.627728    8.702469   16.153189    ( 0.0000,  0.0000,  0.0000)
  99 V      9.257029    6.669569   14.734868    ( 0.0000,  0.0000,  0.0000)
 100 O      8.327732    5.134348   14.613480    ( 0.0000,  0.0000,  0.0000)
 101 O      8.094453    8.162900   14.575538    ( 0.0000,  0.0000,  0.0000)
 102 O      9.941662    6.754842   16.159302    ( 0.0000,  0.0000,  0.0000)
 103 H      8.089013    8.818515   15.298977    ( 0.0000,  0.0000,  0.0000)
 104 H      2.875242    6.513764   15.338756    ( 0.0000,  0.0000,  0.0000)

Unit cell:
           periodic     x           y           z      points  spacing
  1. axis:    yes   10.341746    0.000000    0.000000    54     0.1915
  2. axis:    yes   -0.000000   15.289380    0.000000    80     0.1911
  3. axis:    yes    0.000000    0.000000   23.497201   125     0.1880

  Lengths:  10.341746  15.289380  23.497201
  Angles:   90.000000  90.000000  90.000000

Effective grid spacing dv^(1/3) = 0.1902

                     log10-error:    total        iterations:
           time      wfs    density  energy       fermi  poisson
iter:   1  11:40:08  -2.59   +inf  -859.920026    3             
iter:   2  11:40:30  -3.54  -2.92  -859.851389    4             
iter:   3  11:40:52  -4.19  -3.02  -859.845075    3             
iter:   4  11:41:15  -3.88  -3.13  -859.835717    3             
iter:   5  11:41:37  -4.05  -3.25  -859.834555    3             
iter:   6  11:41:59  -4.38  -3.37  -859.830514    3             
iter:   7  11:42:21  -4.90  -3.46  -859.828973    2             
iter:   8  11:42:44  -5.06  -3.57  -859.827988    3             
iter:   9  11:43:06  -5.49  -3.76  -859.828739    3             
iter:  10  11:43:28  -5.73  -3.90  -859.828301    2             
iter:  11  11:43:50  -6.05  -3.97  -859.828512    2             
iter:  12  11:44:13  -6.12  -4.10  -859.828405    2             
iter:  13  11:44:35  -6.53  -4.21  -859.828338    2             
iter:  14  11:44:57  -6.75  -4.33  -859.828329    2             
iter:  15  11:45:19  -7.03  -4.47  -859.828308    2             
iter:  16  11:45:42  -7.09  -4.56  -859.828349    2             
iter:  17  11:46:04  -7.51  -4.67  -859.828323    2             

Converged after 17 iterations.

Dipole moment: (-3.473573, 0.928958, -0.618731) |e|*Ang

Energy contributions relative to reference atoms: (reference = -935653.237240)

Kinetic:       +629.690961
Potential:     -795.331135
External:        +0.000000
XC:            -700.300137
Entropy (-ST):   -0.551550
Local:           +6.387763
--------------------------
Free energy:   -860.104098
Extrapolated:  -859.828323

Fermi level: -1.20890

Showing all kpts
 Kpt  Band  Eigenvalues  Occupancy
  0   411     -3.16313    1.00000
  0   412     -1.12731    0.30663
  0   413     -1.10531    0.26193
  0   414     -1.04585    0.16376

  1   411     -3.16366    1.00000
  1   412     -1.12098    0.29334
  1   413     -1.10906    0.26924
  1   414     -1.03539    0.14993



Forces in eV/Ang:
  0 O    -1.55738   -0.09634    1.22313
  1 O    -1.09541    0.01646    1.22956
  2 Ti    2.50781    0.01070    1.10508
  3 Ti    2.57138    0.27510    0.66446
  4 Ti    0.05410    0.08869   -1.59667
  5 Ti   -1.71218    0.10907   -1.13513
  6 O     0.31780   -0.06004   -0.02977
  7 O     0.13311    0.28845   -0.24488
  8 O    -1.46724    0.03171    0.22748
  9 O    -0.71104   -0.04987   -0.11914
 10 O     0.20289    0.43390   -1.06885
 11 O     0.43432   -0.18303   -1.03524
 12 O     0.11592   -0.00026    0.09814
 13 O    -0.12072    0.08467    0.00906
 14 Ti    0.03381   -0.02243    0.02245
 15 Ti   -0.14750   -0.01831    0.10771
 16 Ti    0.22420    0.00996   -0.14290
 17 Ti    0.12783    0.00652   -0.03639
 18 O    -0.07265    0.08317    0.13378
 19 O    -0.03663    0.05608    0.16941
 20 O    -0.05454    0.04922    0.09316
 21 O    -0.09044   -0.07230    0.01068
 22 O     0.04808    0.04344   -0.02134
 23 O     0.01104    0.06323   -0.00276
 24 O    -1.59886   -0.06410    2.16856
 25 O    -0.12301   -0.01808   -0.14983
 26 Ti   -0.27897    0.02310    0.73775
 27 Ti    3.29091    0.56400    0.04007
 28 Ti    0.41688   -0.01453   -2.86883
 29 Ti   -0.37141    0.08847    0.29133
 30 O     0.23708    0.11201    0.00425
 31 O    -0.18179   -0.37739   -0.06194
 32 O    -1.74342   -0.02238    0.82566
 33 O    -0.12587   -0.23254   -0.85271
 34 O     0.42820    0.14048   -1.08856
 35 O    -0.22694    0.11084    0.30483
 36 O     0.04639    0.05862    0.07436
 37 Ti    0.13850   -0.24128   -0.02049
 38 Ti    0.16610    0.08562    0.30560
 39 Ti    0.40379    0.00430   -0.16445
 40 Ti    0.16383    0.11014    0.06263
 41 O    -0.17175    0.05021    0.04042
 42 O     0.14809   -0.01503   -0.02252
 43 O    -0.67870    0.07522   -0.22260
 44 O    -0.07266    0.01252    0.03213
 45 O     0.08235   -0.05370    0.20156
 46 O    -0.37700   -0.03014    0.16021
 47 O    -1.57416    0.01524    2.04622
 48 O    -1.07516   -0.01953    1.20561
 49 Ti    2.51719   -0.04090    0.95112
 50 Ti    3.73641   -0.16826    0.18916
 51 Ti   -1.19850    0.03734   -2.20331
 52 Ti   -1.25688    0.20061   -1.32768
 53 O     0.24648   -0.14792    0.09727
 54 O    -0.02570   -0.04703   -0.12411
 55 O    -0.90395   -0.09375    0.56752
 56 O    -0.89089   -0.02472    0.07606
 57 O     0.16028   -0.11761   -0.79641
 58 O     0.25477    0.03966   -0.75241
 59 O    -0.03752   -0.02946    0.16708
 60 O    -0.11589   -0.17976    0.09113
 61 Ti    0.17895    0.21900   -0.03894
 62 Ti    0.09906   -0.11956   -0.06591
 63 Ti    0.10043   -0.02635    0.03069
 64 Ti    0.22626    0.08823    0.14599
 65 O    -0.11174   -0.00170    0.01434
 66 O     0.02462   -0.03428    0.14772
 67 O    -0.19714   -0.11839    0.06469
 68 O    -0.02358   -0.05103    0.02218
 69 O     0.28873    0.03164    0.21634
 70 O    -0.00704   -0.01408    0.10117
 71 O    -1.14577    0.03975    1.30208
 72 O    -1.18154    0.07198    1.17863
 73 Ti    2.56504   -0.08603    0.93571
 74 Ti    2.86302   -0.98705    0.93076
 75 Ti   -1.00963   -0.16320   -1.26694
 76 Ti   -1.05815   -0.44680   -1.36151
 77 O     0.27073    0.12124    0.03930
 78 O     0.22247    0.07239   -0.21791
 79 O    -0.69573   -0.00353   -0.11695
 80 O    -0.79409   -0.04076   -0.08496
 81 O     0.02088    0.19944   -0.92859
 82 O     0.22997    0.20997   -0.94872
 83 O    -0.02811   -0.02303    0.05068
 84 O    -0.08403   -0.02366    0.00342
 85 Ti    0.11856    0.04287    0.03639
 86 Ti   -0.08676   -0.05338    0.01027
 87 Ti    0.04453    0.01119   -0.02836
 88 Ti    0.12790   -0.09358   -0.00178
 89 O    -0.07440   -0.08346    0.11534
 90 O     0.01180   -0.01287    0.12207
 91 O     0.03728    0.01250   -0.01168
 92 O    -0.03277    0.02044   -0.02501
 93 O     0.07867   -0.02736    0.13589
 94 O    -0.05280    0.02368    0.02589
 95 V     0.01054   -0.02417    0.03020
 96 O    -0.03206    0.06236   -0.09166
 97 O    -0.16814    0.00797   -0.01209
 98 O     0.06299    0.05042   -0.00760
 99 V    -0.34580    0.03890    0.23856
100 O     0.11763    0.01937    0.01909
101 O     0.08244    0.02298    0.01033
102 O     0.06857   -0.02527    0.09853
103 H     0.01845   -0.00246    0.02016
104 H     0.05074    0.00533    0.02514

System changes: positions 

Initializing position-dependent things.

Density initialized from wave functions
          .------------------------.  
         /|                        |  
        / |                        |  
       /  |                        |  
      /   |                        |  
     /    |                        |  
    /     |                        |  
   /      |                        |  
  /       |                        |  
 *        |                        |  
 |        |                        |  
 |        |                        |  
 |        |                        |  
 |        O      O                 |  
 |        |   Oi      O   H OO     |  
 |      O | H O V  O     OTi     Ti|  
 |        | Oi     Oi     OV  O    |  
 |   O    |      O     OOi    TiO  |  
 |        OTO    O          O      |  
 |        Oi  O TiO  OTi O   Ti    |  
 |  O  O  |O   Ti     Ti   OTiO  O |  
 |      Tii  O OO    OO   O        |  
 |      OO| O     OTii    Tii      |  
 |   OTi  | Tii     O   OO     O   |  
 |    O   |O     OTi     Oi        |  
 |  Ti    TO   O  O    O     O     |  
 |  O    O|     Ti    Ti           |  
 |       Ti         O      O       |  
 |        |  O                     |  
 |        .------------------------.  
 |       /                        /   
 |      /                        /    
 |     /                        /     
 |    /                        /      
 |   /                        /       
 |  /                        /        
 | /                        /         
 |/                        /          
 *------------------------*           

Positions:
   0 O      9.974517    2.862499    7.395923    ( 0.0000,  0.0000,  0.0000)
   1 O      4.751576    0.970856    7.433844    ( 0.0000,  0.0000,  0.0000)
   2 Ti     2.973752    0.965511    8.331948    ( 0.0000,  0.0000,  0.0000)
   3 Ti     8.189404    2.803522    8.288172    ( 0.0000,  0.0000,  0.0000)
   4 Ti     0.613369    2.836809    8.994488    ( 0.0000,  0.0000,  0.0000)
   5 Ti     5.856682    0.938662    8.958328    ( 0.0000,  0.0000,  0.0000)
   6 O      1.063899    0.953977    8.954538    ( 0.0000,  0.0000,  0.0000)
   7 O      6.332739    2.842687    8.933688    ( 0.0000,  0.0000,  0.0000)
   8 O      9.254147    2.761528    9.821154    ( 0.0000,  0.0000,  0.0000)
   9 O      4.054529    0.983467    9.850791    ( 0.0000,  0.0000,  0.0000)
  10 O      7.750782    0.923741    8.323928    ( 0.0000,  0.0000,  0.0000)
  11 O      2.518424    2.887861    8.350100    ( 0.0000,  0.0000,  0.0000)
  12 O      1.084581    2.901398   11.008701    ( 0.0000,  0.0000,  0.0000)
  13 O      6.274304    0.933773   10.966055    ( 0.0000,  0.0000,  0.0000)
  14 Ti     4.393428    0.980938   11.933838    ( 0.0000,  0.0000,  0.0000)
  15 Ti     9.578978    2.832757   11.934201    ( 0.0000,  0.0000,  0.0000)
  16 Ti     2.010757    2.863448   12.532845    ( 0.0000,  0.0000,  0.0000)
  17 Ti     7.192006    0.944014   12.490911    ( 0.0000,  0.0000,  0.0000)
  18 O      2.552144    0.972183   12.727312    ( 0.0000,  0.0000,  0.0000)
  19 O      7.733437    2.850506   12.739875    ( 0.0000,  0.0000,  0.0000)
  20 O      0.360245    2.851052   13.368831    ( 0.0000,  0.0000,  0.0000)
  21 O      5.568688    1.030589   13.358251    ( 0.0000,  0.0000,  0.0000)
  22 O      9.176850    0.949763   11.922457    ( 0.0000,  0.0000,  0.0000)
  23 O      3.965833    2.912839   11.917353    ( 0.0000,  0.0000,  0.0000)
  24 O      9.990889    6.696232    7.341894    ( 0.0000,  0.0000,  0.0000)
  25 O      4.511960    4.787917    8.184082    ( 0.0000,  0.0000,  0.0000)
  26 Ti     2.724858    4.779771    7.960807    ( 0.0000,  0.0000,  0.0000)
  27 Ti     8.145479    6.707698    8.192011    ( 0.0000,  0.0000,  0.0000)
  28 Ti     0.630398    6.695439    9.077253    ( 0.0000,  0.0000,  0.0000)
  29 Ti     6.062248    4.766294    9.148169    ( 0.0000,  0.0000,  0.0000)
  30 O      1.023957    4.767147    8.931551    ( 0.0000,  0.0000,  0.0000)
  31 O      6.358432    6.708779    8.938070    ( 0.0000,  0.0000,  0.0000)
  32 O      9.235162    6.764411    9.751167    ( 0.0000,  0.0000,  0.0000)
  33 O      7.850578    4.773562    8.386917    ( 0.0000,  0.0000,  0.0000)
  34 O      2.498268    6.663844    8.333080    ( 0.0000,  0.0000,  0.0000)
  35 O      1.024606    6.534103   11.069767    ( 0.0000,  0.0000,  0.0000)
  36 O      5.836737    4.741572   10.941201    ( 0.0000,  0.0000,  0.0000)
  37 Ti     4.460198    4.769889   12.240466    ( 0.0000,  0.0000,  0.0000)
  38 Ti     9.447550    6.654638   11.678825    ( 0.0000,  0.0000,  0.0000)
  39 Ti     2.077580    6.626130   12.612039    ( 0.0000,  0.0000,  0.0000)
  40 Ti     7.444579    4.761649   13.045322    ( 0.0000,  0.0000,  0.0000)
  41 O      2.535016    4.749130   12.933623    ( 0.0000,  0.0000,  0.0000)
  42 O      7.647534    6.662523   12.510767    ( 0.0000,  0.0000,  0.0000)
  43 O      0.195336    6.685753   13.476303    ( 0.0000,  0.0000,  0.0000)
  44 O      5.643208    4.787850   13.573462    ( 0.0000,  0.0000,  0.0000)
  45 O      9.089804    4.765335   11.810236    ( 0.0000,  0.0000,  0.0000)
  46 O      3.923307    6.592379   11.849803    ( 0.0000,  0.0000,  0.0000)
  47 O      9.941219   10.526766    7.424162    ( 0.0000,  0.0000,  0.0000)
  48 O      4.793811    8.598035    7.389240    ( 0.0000,  0.0000,  0.0000)
  49 Ti     2.924043    8.598447    8.231525    ( 0.0000,  0.0000,  0.0000)
  50 Ti     8.168624   10.568713    8.307193    ( 0.0000,  0.0000,  0.0000)
  51 Ti     0.689842   10.519812    9.160804    ( 0.0000,  0.0000,  0.0000)
  52 Ti     5.895270    8.633917    8.910762    ( 0.0000,  0.0000,  0.0000)
  53 O      1.085423    8.597422    8.995679    ( 0.0000,  0.0000,  0.0000)
  54 O      6.252646   10.528029    8.921193    ( 0.0000,  0.0000,  0.0000)
  55 O      9.220059   10.568411    9.844708    ( 0.0000,  0.0000,  0.0000)
  56 O      4.059029    8.507535    9.748930    ( 0.0000,  0.0000,  0.0000)
  57 O      7.758726    8.628199    8.273162    ( 0.0000,  0.0000,  0.0000)
  58 O      2.566398   10.490594    8.371621    ( 0.0000,  0.0000,  0.0000)
  59 O      1.046263   10.535043   11.091616    ( 0.0000,  0.0000,  0.0000)
  60 O      6.207852    8.678089   11.026619    ( 0.0000,  0.0000,  0.0000)
  61 Ti     4.259187    8.633317   11.642416    ( 0.0000,  0.0000,  0.0000)
  62 Ti     9.606492   10.555395   11.937808    ( 0.0000,  0.0000,  0.0000)
  63 Ti     2.058031   10.541865   12.801553    ( 0.0000,  0.0000,  0.0000)
  64 Ti     7.214592    8.658622   12.545966    ( 0.0000,  0.0000,  0.0000)
[...]
 *        |                        |  
 |        |                        |  
 |        |                        |  
 |        |                        |  
 |        O      O                 |  
 |        |   Oi      O   H OO     |  
 |      O | H O V  O     OTi     Ti|  
 |        | Oi     Oi     OV  O    |  
 |   O    |      O     OOi    TiO  |  
 |        OTO     O         O      |  
 |        Oi  O TiO  OTi O   Ti    |  
 |  O  O  |O   Ti     Ti   OTiO  O |  
 |      Tii OO OO    OO   O        |  
 |      OO|       OTii    Tii      |  
 |   OTi  | Tii     O   OO     O   |  
 |    O   |O     OTi     Oi        |  
 |  Ti    TO   O  O    O     O     |  
 |  O    O|     Ti    Ti           |  
 |       Ti         O      O       |  
 |        |  O                     |  
 |        .------------------------.  
 |       /                        /   
 |      /                        /    
 |     /                        /     
 |    /                        /      
 |   /                        /       
 |  /                        /        
 | /                        /         
 |/                        /          
 *------------------------*           

Positions:
   0 O      9.974517    2.862499    7.395923    ( 0.0000,  0.0000,  0.0000)
   1 O      4.751576    0.970856    7.433844    ( 0.0000,  0.0000,  0.0000)
   2 Ti     2.973752    0.965511    8.331948    ( 0.0000,  0.0000,  0.0000)
   3 Ti     8.189404    2.803522    8.288172    ( 0.0000,  0.0000,  0.0000)
   4 Ti     0.613369    2.836809    8.994488    ( 0.0000,  0.0000,  0.0000)
   5 Ti     5.856682    0.938662    8.958328    ( 0.0000,  0.0000,  0.0000)
   6 O      1.063899    0.953977    8.954538    ( 0.0000,  0.0000,  0.0000)
   7 O      6.332739    2.842687    8.933688    ( 0.0000,  0.0000,  0.0000)
   8 O      9.254147    2.761528    9.821154    ( 0.0000,  0.0000,  0.0000)
   9 O      4.054529    0.983467    9.850791    ( 0.0000,  0.0000,  0.0000)
  10 O      7.750782    0.923741    8.323928    ( 0.0000,  0.0000,  0.0000)
  11 O      2.518424    2.887861    8.350100    ( 0.0000,  0.0000,  0.0000)
  12 O      1.092125    2.889953   11.034028    ( 0.0000,  0.0000,  0.0000)
  13 O      6.267596    0.961638   10.990229    ( 0.0000,  0.0000,  0.0000)
  14 Ti     4.405045    0.958723   11.964861    ( 0.0000,  0.0000,  0.0000)
  15 Ti     9.578030    2.827708   11.972631    ( 0.0000,  0.0000,  0.0000)
  16 Ti     2.017050    2.855324   12.556724    ( 0.0000,  0.0000,  0.0000)
  17 Ti     7.203902    0.939632   12.510229    ( 0.0000,  0.0000,  0.0000)
  18 O      2.551413    0.959618   12.759471    ( 0.0000,  0.0000,  0.0000)
  19 O      7.734802    2.844509   12.802438    ( 0.0000,  0.0000,  0.0000)
  20 O      0.368697    2.852199   13.409892    ( 0.0000,  0.0000,  0.0000)
  21 O      5.573617    0.952938   13.382263    ( 0.0000,  0.0000,  0.0000)
  22 O      9.179299    0.943850   11.982475    ( 0.0000,  0.0000,  0.0000)
  23 O      3.985051    2.897415   12.007947    ( 0.0000,  0.0000,  0.0000)
  24 O      9.990889    6.696232    7.341894    ( 0.0000,  0.0000,  0.0000)
  25 O      4.511960    4.787917    8.184082    ( 0.0000,  0.0000,  0.0000)
  26 Ti     2.724858    4.779771    7.960807    ( 0.0000,  0.0000,  0.0000)
  27 Ti     8.145479    6.707698    8.192011    ( 0.0000,  0.0000,  0.0000)
  28 Ti     0.630398    6.695439    9.077253    ( 0.0000,  0.0000,  0.0000)
  29 Ti     6.062248    4.766294    9.148169    ( 0.0000,  0.0000,  0.0000)
  30 O      1.023957    4.767147    8.931551    ( 0.0000,  0.0000,  0.0000)
  31 O      6.358432    6.708779    8.938070    ( 0.0000,  0.0000,  0.0000)
  32 O      9.235162    6.764411    9.751167    ( 0.0000,  0.0000,  0.0000)
  33 O      7.850578    4.773562    8.386917    ( 0.0000,  0.0000,  0.0000)
  34 O      2.498268    6.663844    8.333080    ( 0.0000,  0.0000,  0.0000)
  35 O      0.998194    6.556366   11.110401    ( 0.0000,  0.0000,  0.0000)
  36 O      5.792539    4.759975   10.935232    ( 0.0000,  0.0000,  0.0000)
  37 Ti     4.472828    4.745426   12.270841    ( 0.0000,  0.0000,  0.0000)
  38 Ti     9.445396    6.660188   11.716908    ( 0.0000,  0.0000,  0.0000)
  39 Ti     2.112427    6.627521   12.619916    ( 0.0000,  0.0000,  0.0000)
  40 Ti     7.490663    4.769151   13.132903    ( 0.0000,  0.0000,  0.0000)
  41 O      2.518271    4.741339   12.955585    ( 0.0000,  0.0000,  0.0000)
  42 O      7.665225    6.667639   12.589831    ( 0.0000,  0.0000,  0.0000)
  43 O      0.114947    6.730047   13.480656    ( 0.0000,  0.0000,  0.0000)
  44 O      5.666336    4.793749   13.596222    ( 0.0000,  0.0000,  0.0000)
  45 O      9.094996    4.757329   11.868554    ( 0.0000,  0.0000,  0.0000)
  46 O      3.864855    6.572592   11.861983    ( 0.0000,  0.0000,  0.0000)
  47 O      9.941219   10.526766    7.424162    ( 0.0000,  0.0000,  0.0000)
  48 O      4.793811    8.598035    7.389240    ( 0.0000,  0.0000,  0.0000)
  49 Ti     2.924043    8.598447    8.231525    ( 0.0000,  0.0000,  0.0000)
  50 Ti     8.168624   10.568713    8.307193    ( 0.0000,  0.0000,  0.0000)
  51 Ti     0.689842   10.519812    9.160804    ( 0.0000,  0.0000,  0.0000)
  52 Ti     5.895270    8.633917    8.910762    ( 0.0000,  0.0000,  0.0000)
  53 O      1.085423    8.597422    8.995679    ( 0.0000,  0.0000,  0.0000)
  54 O      6.252646   10.528029    8.921193    ( 0.0000,  0.0000,  0.0000)
  55 O      9.220059   10.568411    9.844708    ( 0.0000,  0.0000,  0.0000)
  56 O      4.059029    8.507535    9.748930    ( 0.0000,  0.0000,  0.0000)
  57 O      7.758726    8.628199    8.273162    ( 0.0000,  0.0000,  0.0000)
  58 O      2.566398   10.490594    8.371621    ( 0.0000,  0.0000,  0.0000)
  59 O      1.046869   10.535114   11.113054    ( 0.0000,  0.0000,  0.0000)
  60 O      6.205999    8.633712   11.069797    ( 0.0000,  0.0000,  0.0000)
  61 Ti     4.281039    8.679682   11.649472    ( 0.0000,  0.0000,  0.0000)
  62 Ti     9.630672   10.526811   11.949616    ( 0.0000,  0.0000,  0.0000)
  63 Ti     2.065658   10.529317   12.855128    ( 0.0000,  0.0000,  0.0000)
  64 Ti     7.232344    8.662613   12.598809    ( 0.0000,  0.0000,  0.0000)
  65 O      2.501218    8.560054   12.461331    ( 0.0000,  0.0000,  0.0000)
  66 O      7.659776   10.515135   12.777278    ( 0.0000,  0.0000,  0.0000)
  67 O      0.344631   10.459241   13.479847    ( 0.0000,  0.0000,  0.0000)
  68 O      5.280029    8.588587   13.443192    ( 0.0000,  0.0000,  0.0000)
  69 O      9.048376    8.614278   11.860402    ( 0.0000,  0.0000,  0.0000)
  70 O      3.989779   10.510721   11.814333    ( 0.0000,  0.0000,  0.0000)
  71 O      9.924325   14.342583    7.441007    ( 0.0000,  0.0000,  0.0000)
  72 O      4.751345   12.420255    7.419069    ( 0.0000,  0.0000,  0.0000)
  73 Ti     2.956521   12.425773    8.321746    ( 0.0000,  0.0000,  0.0000)
  74 Ti     8.154962   14.365639    8.334509    ( 0.0000,  0.0000,  0.0000)
  75 Ti     0.650324   14.339133    8.977444    ( 0.0000,  0.0000,  0.0000)
  76 Ti     5.825252   12.455807    8.942724    ( 0.0000,  0.0000,  0.0000)
  77 O      1.076745   12.417342    8.959204    ( 0.0000,  0.0000,  0.0000)
  78 O      6.230080   14.350295    8.927239    ( 0.0000,  0.0000,  0.0000)
  79 O      9.212773   14.346204    9.869863    ( 0.0000,  0.0000,  0.0000)
  80 O      4.047363   12.465565    9.835258    ( 0.0000,  0.0000,  0.0000)
  81 O      7.738576   12.452498    8.352645    ( 0.0000,  0.0000,  0.0000)
  82 O      2.551770   14.335367    8.361171    ( 0.0000,  0.0000,  0.0000)
  83 O      1.079840   14.333331   11.019148    ( 0.0000,  0.0000,  0.0000)
  84 O      6.260151   12.442487   10.972905    ( 0.0000,  0.0000,  0.0000)
  85 Ti     4.388186   12.434765   11.925246    ( 0.0000,  0.0000,  0.0000)
  86 Ti     9.584844   14.316764   11.992637    ( 0.0000,  0.0000,  0.0000)
  87 Ti     2.034816   14.340138   12.522519    ( 0.0000,  0.0000,  0.0000)
  88 Ti     7.178490   12.426397   12.494445    ( 0.0000,  0.0000,  0.0000)
  89 O      2.556275   12.432462   12.757668    ( 0.0000,  0.0000,  0.0000)
  90 O      7.711947   14.330115   12.746167    ( 0.0000,  0.0000,  0.0000)
  91 O      0.413180   14.330589   13.410225    ( 0.0000,  0.0000,  0.0000)
  92 O      5.548636   12.409374   13.358424    ( 0.0000,  0.0000,  0.0000)
  93 O      9.174929   12.405969   12.010699    ( 0.0000,  0.0000,  0.0000)
  94 O      4.001800   14.349122   11.952110    ( 0.0000,  0.0000,  0.0000)
  95 V      3.962699    8.666639   14.711170    ( 0.0000,  0.0000,  0.0000)
  96 O      3.038830   10.120247   14.506099    ( 0.0000,  0.0000,  0.0000)
  97 O      2.865731    7.113486   14.595796    ( 0.0000,  0.0000,  0.0000)
  98 O      4.620709    8.640852   16.156501    ( 0.0000,  0.0000,  0.0000)
  99 V      9.213673    6.732190   14.795820    ( 0.0000,  0.0000,  0.0000)
 100 O      8.356552    5.148371   14.700857    ( 0.0000,  0.0000,  0.0000)
 101 O      8.057523    8.225058   14.627513    ( 0.0000,  0.0000,  0.0000)
 102 O      9.956221    6.868154   16.190011    ( 0.0000,  0.0000,  0.0000)
 103 H      8.091685    8.916250   15.316476    ( 0.0000,  0.0000,  0.0000)
 104 H      2.814047    6.500084   15.352635    ( 0.0000,  0.0000,  0.0000)

Unit cell:
           periodic     x           y           z      points  spacing
  1. axis:    yes   10.341746    0.000000    0.000000    54     0.1915
  2. axis:    yes   -0.000000   15.289380    0.000000    80     0.1911
  3. axis:    yes    0.000000    0.000000   23.497201   125     0.1880

  Lengths:  10.341746  15.289380  23.497201
  Angles:   90.000000  90.000000  90.000000

Effective grid spacing dv^(1/3) = 0.1902

                     log10-error:    total        iterations:
           time      wfs    density  energy       fermi  poisson
iter:   1  19:58:10  -4.96   +inf  -860.062613    2             
iter:   2  19:58:33  -5.84  -4.20  -860.062716    2             
iter:   3  19:58:55  -6.44  -4.28  -860.062519    2             
iter:   4  19:59:17  -6.17  -4.37  -860.062685    2             
iter:   5  19:59:39  -6.89  -4.53  -860.062542    2             
iter:   6  20:00:01  -7.07  -4.62  -860.062588    2             
iter:   7  20:00:23  -7.22  -4.80  -860.062597    2             
iter:   8  20:00:46  -7.79  -4.99  -860.062551    2             

Converged after 8 iterations.

Dipole moment: (0.235724, -0.340568, -0.619800) |e|*Ang

Energy contributions relative to reference atoms: (reference = -935653.237240)

Kinetic:       +622.703803
Potential:     -789.891448
External:        +0.000000
XC:            -698.955200
Entropy (-ST):   -0.558739
Local:           +6.359665
--------------------------
Free energy:   -860.341920
Extrapolated:  -860.062551

Fermi level: -1.18666

Showing all kpts
 Kpt  Band  Eigenvalues  Occupancy
  0   411     -3.17913    1.00000
  0   412     -1.10656    0.30983
  0   413     -1.08085    0.25769
  0   414     -1.02622    0.16737

  1   411     -3.17970    1.00000
  1   412     -1.09906    0.29401
  1   413     -1.08504    0.26578
  1   414     -1.01847    0.15685



Forces in eV/Ang:
  0 O    -1.50176   -0.09990    1.24398
  1 O    -1.02622    0.01617    1.25205
  2 Ti    2.52689    0.01262    1.15708
  3 Ti    2.62994    0.29560    0.74390
  4 Ti   -0.05482    0.08499   -1.45399
  5 Ti   -1.80514    0.14688   -1.06004
  6 O     0.30576   -0.08986    0.00061
  7 O     0.11707    0.30956   -0.21173
  8 O    -1.40472    0.03568    0.35906
  9 O    -0.69945   -0.03968   -0.02554
 10 O     0.18898    0.41952   -1.05712
 11 O     0.42641   -0.17835   -1.01993
 12 O    -0.00024    0.00297    0.00058
 13 O    -0.00034    0.00026    0.00090
 14 Ti    0.00028    0.00158   -0.00007
 15 Ti   -0.00299   -0.00060   -0.00053
 16 Ti   -0.00345    0.00053   -0.00001
 17 Ti   -0.00088   -0.00183    0.00038
 18 O    -0.00335   -0.00000    0.00025
 19 O    -0.00020   -0.00071   -0.00124
 20 O    -0.00098   -0.00043   -0.00110
 21 O    -0.00063   -0.00146    0.00164
 22 O    -0.00035   -0.00244   -0.00197
 23 O     0.00181   -0.00256    0.00127
 24 O    -1.51852   -0.05995    2.17546
 25 O    -0.07374   -0.02254   -0.16718
 26 Ti   -0.25492    0.02497    0.72672
 27 Ti    3.41988    0.54817    0.24156
 28 Ti    0.10329   -0.03220   -2.66240
 29 Ti   -0.50067    0.12785    0.28644
 30 O     0.23051    0.13941    0.09832
 31 O    -0.19560   -0.36904   -0.07896
 32 O    -1.70321   -0.05349    0.96540
 33 O    -0.13054   -0.24271   -0.85855
 34 O     0.43134    0.14620   -1.06516
 35 O    -0.00024   -0.00072   -0.00244
 36 O    -0.00077    0.00029   -0.00116
 37 Ti   -0.00168    0.00284   -0.00237
 38 Ti    0.00148    0.00079    0.00140
 39 Ti   -0.00102    0.00030   -0.00210
 40 Ti   -0.00214   -0.00026    0.00037
 41 O    -0.00051    0.00189   -0.00018
 42 O     0.00137    0.00001    0.00069
 43 O    -0.00067   -0.00068    0.00242
 44 O     0.00132    0.00170    0.00087
 45 O    -0.00096    0.00051   -0.00161
 46 O    -0.00121   -0.00351    0.00110
 47 O    -1.50757    0.01708    2.07782
 48 O    -0.99403   -0.01537    1.24156
 49 Ti    2.52668   -0.05710    0.97900
 50 Ti    3.75458   -0.18549    0.23153
 51 Ti   -1.25288    0.04179   -2.14970
 52 Ti   -1.32866    0.11799   -1.27712
 53 O     0.24499   -0.09443    0.13245
 54 O    -0.03636   -0.10915   -0.05584
 55 O    -0.87441   -0.11216    0.60006
 56 O    -0.83211    0.02138    0.22921
 57 O     0.13562   -0.08054   -0.79110
 58 O     0.22775    0.03919   -0.73279
 59 O    -0.00409    0.00034    0.00089
 60 O    -0.00115   -0.00052    0.00166
 61 Ti   -0.00016    0.00413    0.00124
 62 Ti    0.00172   -0.00269   -0.00037
 63 Ti   -0.00245    0.00048    0.00227
 64 Ti   -0.00131   -0.00195    0.00629
 65 O     0.00074   -0.00100   -0.00058
 66 O    -0.00252   -0.00118    0.00110
 67 O    -0.00105   -0.00118    0.00169
 68 O     0.00314   -0.00007    0.00081
 69 O     0.00280   -0.00089    0.00043
 70 O     0.00166   -0.00127    0.00117
 71 O    -1.11138    0.03529    1.32069
 72 O    -1.13267    0.06855    1.18921
 73 Ti    2.60753   -0.06993    0.98264
 74 Ti    2.88242   -0.97729    0.94279
 75 Ti   -1.03145   -0.13759   -1.17937
 76 Ti   -1.14119   -0.44792   -1.31454
 77 O     0.24773    0.07915    0.07447
 78 O     0.21478    0.08412   -0.14340
 79 O    -0.70906   -0.00957   -0.00939
 80 O    -0.76265   -0.04049   -0.02840
 81 O     0.01535    0.19260   -0.92121
 82 O     0.21152    0.20134   -0.93477
 83 O    -0.00048    0.00061    0.00079
 84 O    -0.00037    0.00062    0.00039
 85 Ti   -0.00067    0.00466   -0.00173
 86 Ti   -0.00326   -0.00233    0.00061
 87 Ti   -0.00198    0.00101    0.00145
 88 Ti   -0.00326   -0.00038    0.00167
 89 O    -0.00309    0.00338    0.00096
 90 O    -0.00035   -0.00071    0.00181
 91 O     0.00062   -0.00112    0.00002
 92 O    -0.00059   -0.00131    0.00101
 93 O     0.00155   -0.00133    0.00358
 94 O     0.00433   -0.00102    0.00136
 95 V    -0.00352    0.00142   -0.00184
 96 O    -0.00200    0.00023   -0.00333
 97 O    -0.00083    0.00539    0.00177
 98 O     0.00209   -0.00079    0.00225
 99 V    -0.00074   -0.00451    0.00070
100 O    -0.00023   -0.00101   -0.00145
101 O    -0.00295    0.00259   -0.00112
102 O     0.00328   -0.00554   -0.00198
103 H     0.00546   -0.00576    0.00196
104 H     0.00660    0.00356    0.00070

Timing:                                      incl.     excl.
-------------------------------------------------------------------
Density initialized from wave functions:   199.514   199.512   0.6% |
 Symmetrize density:                         0.002     0.002   0.0% |
Forces:                                   1412.522  1412.522   4.5% |-|
Hamiltonian:                               165.315     2.123   0.0% |
 Atomic:                                    15.364     0.114   0.0% |
  XC Correction:                            15.250    15.250   0.0% |
 Calculate atomic Hamiltonians:            102.473   102.473   0.3% |
 Communicate:                               14.753    14.753   0.0% |
 Initialize Hamiltonian:                     0.001     0.001   0.0% |
 Poisson:                                    0.241     0.241   0.0% |
 XC 3D grid:                                30.361    30.361   0.1% |
LCAO initialization:                        64.316     1.881   0.0% |
 LCAO eigensolver:                          16.275     0.014   0.0% |
  Calculate projections:                     0.000     0.000   0.0% |
  DenseAtomicCorrection:                     0.000     0.000   0.0% |
  Distribute overlap matrix:                 7.397     7.397   0.0% |
  Orbital Layouts:                           8.506     8.506   0.0% |
  Potential matrix:                          0.021     0.021   0.0% |
  Sum over cells:                            0.336     0.336   0.0% |
 LCAO to grid:                              44.325    44.325   0.1% |
 Set positions (LCAO WFS):                   1.834     1.387   0.0% |
  Basic WFS set positions:                   0.003     0.003   0.0% |
  Basis functions set positions:             0.000     0.000   0.0% |
  P tci:                                     0.001     0.001   0.0% |
  ST tci:                                    0.274     0.274   0.0% |
  mktci:                                     0.169     0.169   0.0% |
PWDescriptor:                                0.155     0.155   0.0% |
Redistribute:                                0.075     0.075   0.0% |
SCF-cycle:                               29604.528    64.094   0.2% |
 Davidson:                               25890.982  6804.624  21.5% |--------|
  Apply H:                                4804.994  4643.658  14.7% |-----|
   HMM T:                                  161.336   161.336   0.5% |
  Subspace diag:                          3206.643     0.170   0.0% |
   calc_h_matrix:                         2089.935   504.907   1.6% ||
    Apply H:                              1585.028  1527.788   4.8% |-|
     HMM T:                                 57.240    57.240   0.2% |
   diagonalize:                            170.632   170.632   0.5% |
   rotate_psi:                             945.907   945.907   3.0% ||
  calc. matrices:                         6864.483  3706.903  11.7% |----|
   Apply H:                               3157.579  3053.577   9.6% |---|
    HMM T:                                 104.003   104.003   0.3% |
  diagonalize:                            2241.087  2241.087   7.1% |--|
  rotate_psi:                             1969.151  1969.151   6.2% |-|
 Density:                                 1869.562     0.025   0.0% |
  Atomic density matrices:                   9.037     9.037   0.0% |
  Mix:                                    1050.913  1050.913   3.3% ||
  Multipole moments:                         0.686     0.686   0.0% |
  Pseudo density:                          808.902   808.877   2.6% ||
   Symmetrize density:                       0.025     0.025   0.0% |
 Hamiltonian:                             1542.908    19.908   0.1% |
  Atomic:                                  143.423     1.079   0.0% |
   XC Correction:                          142.344   142.344   0.4% |
  Calculate atomic Hamiltonians:           957.389   957.389   3.0% ||
  Communicate:                             136.327   136.327   0.4% |
  Poisson:                                   2.148     2.148   0.0% |
  XC 3D grid:                              283.712   283.712   0.9% |
 Orthonormalize:                           236.981     0.033   0.0% |
  calc_s_matrix:                            23.914    23.914   0.1% |
  inverse-cholesky:                          9.808     9.808   0.0% |
  projections:                             156.987   156.987   0.5% |
  rotate_psi_s:                             46.238    46.238   0.1% |
Set symmetry:                                0.001     0.001   0.0% |
Other:                                     249.555   249.555   0.8% |
-------------------------------------------------------------------
Total:                                             31695.979 100.0%

Memory usage: 1.04 GiB
Date: Wed Feb 26 20:00:57 2020
