
  ___ ___ ___ _ _ _  
 |   |   |_  | | | | 
 | | | | | . | | | | 
 |__ |  _|___|_____|  1.5.1
 |___|_|             

User:   siva@s65n11.grendel.cscaa.dk
Date:   Tue Jul 30 13:36:10 2019
Arch:   x86_64
Pid:    73687
Python: 3.6.3
gpaw:   /home/siva/gpaw-1.5.1/gpaw
_gpaw:  /home/siva/gpaw-1.5.1/build/bin.linux-x86_64-3.6/gpaw-python
ase:    /home/siva/env1.5/lib/python3.6/site-packages/ase (version 3.17.0)
numpy:  /home/siva/env1.5/lib/python3.6/site-packages/numpy (version 1.16.0)
scipy:  /home/siva/env1.5/lib/python3.6/site-packages/scipy (version 1.2.0)
units:  Angstrom and eV
cores:  16
Extra parameters: {'blacs': True}

Input parameters:
  basis: dzp
  mode: {ecut: 500.0,
         gammacentered: False,
         name: pw}
  spinpol: True
  xc: PBE

System changes: positions, numbers, cell, pbc, initial_charges, initial_magmoms 

Initialize ...

O-setup:
  name: Oxygen
  id: 32ecd46bf208036f09c70b0ec9a88b78
  Z: 8
  valence: 6
  core: 2
  charge: 0.0
  file: /home/wido/sw/gpaw/basis/gpaw-setups-0.9.20000/O.PBE.gz
  cutoffs: 0.67(comp), 1.17(filt), 0.83(core), lmax=2
  valence states:
                energy  radius
    2s(2.00)   -23.961   0.688
    2p(4.00)    -9.029   0.598
    *s           3.251   0.688
    *p          18.182   0.598
    *d           0.000   0.619

  LCAO basis set for O:
    Name: dzp
    File: /home/wido/sw/gpaw/basis/gpaw-setups-0.9.20000/O.dzp.basis.gz
    Number of radial functions: 5
    Number of spherical harmonics: 13
      l=0, rc=4.3438 Bohr: 2s-sz confined orbital
      l=1, rc=5.3906 Bohr: 2p-sz confined orbital
      l=0, rc=2.2969 Bohr: 2s-dz split-valence wave
      l=1, rc=2.8906 Bohr: 2p-dz split-valence wave
      l=2, rc=5.3906 Bohr: d-type Gaussian polarization

Reference energy: -4081.704602

Spin-polarized calculation.
Magnetic moment: 6.000000

Occupation numbers:
  Fermi-Dirac: width=0.1000 eV

Convergence criteria:
  Maximum total energy change: 0.0005 eV / electron
  Maximum integral of absolute density change: 0.0001 electrons
  Maximum integral of absolute eigenstate change: 4e-08 eV^2
  Maximum number of iterations: 333

Symmetries present (total): 2

  ( 1  0  0)  (-1  0  0)
  ( 0  1  0)  ( 0 -1  0)
  ( 0  0  1)  ( 0  0  1)

1 k-point (Gamma)
1 k-point in the irreducible part of the Brillouin zone
       k-points in crystal coordinates                weights
   0:     0.00000000    0.00000000    0.00000000          1/1

Wave functions: Plane wave expansion
  Cutoff energy: 500.000 eV
  Number of coefficients: 113329 (reduced to 56665)
  Pulay-stress correction: 0.000000 eV/Ang^3 (de/decut=0.000000)
  Using FFTW library
  ScaLapack parameters: grid=1x1, blocksize=None
  Wavefunction extrapolation:
    Improved wavefunction reuse through dual PAW basis 

Eigensolver
   Davidson(niter=2, smin=None, normalize=True) 

Densities:
  Coarse grid: 64*64*135 grid
  Fine grid: 128*128*270 grid
  Total Charge: 0.000000 

Density mixing:
  Method: sum
  Backend: pulay
  Linear mixing parameter: 0.05
  Mixing with 5 old densities
  Damping of long wave oscillations: 50 

Hamiltonian:
  XC and Coulomb potentials evaluated on a 128*128*270 grid
  Using the PBE Exchange-Correlation functional
 

XC parameters: PBE with 2 nearest neighbor stencil

Memory estimate:
  Process memory now: 316.69 MiB
  Calculator: 77.40 MiB
    Density: 33.58 MiB
      Arrays: 18.59 MiB
      Localized functions: 9.67 MiB
      Mixer: 5.31 MiB
    Hamiltonian: 14.01 MiB
      Arrays: 13.81 MiB
      XC: 0.00 MiB
      Poisson: 0.00 MiB
      vbar: 0.20 MiB
    Wavefunctions: 29.81 MiB
      Arrays psit_nG: 6.92 MiB
      Eigensolver: 11.25 MiB
      Projections: 0.00 MiB
      Projectors: 0.76 MiB
      PW-descriptor: 10.89 MiB

Total number of cores used: 16
Parallelization over spin
Domain decomposition: 1 x 2 x 4

Number of atoms: 2
Number of atomic orbitals: 26
Number of bands in calculation: 8
Bands to converge: occupied states only
Number of valence electrons: 12

... initialized

Initializing position-dependent things.

Density initialized from atomic densities
Creating initial wave functions:
  8 bands from LCAO basis set

                
                
                
       O        
                
       O        
                
                
                

Positions:
   0 O      3.588000    6.214500   13.122978    ( 0.0000,  0.0000,  3.0000)
   1 O      3.588000    6.214500   11.877022    ( 0.0000,  0.0000,  3.0000)

Unit cell:
           periodic     x           y           z      points  spacing
  1. axis:    yes   14.352000    0.000000    0.000000    64     0.1942
  2. axis:    yes   -7.176000   12.429000    0.000000    64     0.1942
  3. axis:    no     0.000000    0.000000   25.000000   135     0.1852

  Lengths:  14.352000  14.351830  25.000000
  Angles:   90.000000  90.000000 120.000392

Effective grid spacing dv^(1/3) = 0.2005

                     log10-error:    total        iterations:
           time      wfs    density  energy       fermi  poisson  magmom
iter:   1  13:36:14  +0.54   +inf    -7.068389    0               +2.0000
iter:   2  13:36:15  -1.06  -1.11    -9.625676    6               +2.0000
iter:   3  13:36:17  -0.90  -1.13    -9.612628    19              +2.0000
iter:   4  13:36:19  -1.85  -1.74    -9.668430    4               +2.0000
iter:   5  13:36:21  -1.73  -1.68    -9.671550    10              +2.0000
iter:   6  13:36:22  -2.65  -1.88    -9.679995    5               +2.0000
iter:   7  13:36:24  -2.11  -2.39    -9.704344    7               +2.0000
iter:   8  13:36:26  -2.60  -1.83    -9.679018    6               +2.0000
iter:   9  13:36:28  -2.86  -2.60    -9.679471    3               +2.0000
iter:  10  13:36:29  -3.81  -2.63    -9.678866    3               +2.0000
iter:  11  13:36:31  -5.37  -3.39    -9.678857    2               +2.0000
iter:  12  13:36:33  -4.80  -3.57    -9.678887    2               +2.0000
iter:  13  13:36:34  -5.96  -3.31    -9.678870    2               +2.0000
iter:  14  13:36:36  -6.60  -3.44    -9.678870    1               +2.0000
iter:  15  13:36:38  -5.70  -3.46    -9.678857    2               +2.0000
iter:  16  13:36:40  -6.34  -4.10    -9.678856    1               +2.0000
iter:  17  13:36:41  -7.11  -4.30    -9.678857    1               +2.0000
iter:  18  13:36:43  -5.85  -4.17    -9.678859    2               +2.0000
iter:  19  13:36:45  -6.52  -3.78    -9.678856    2               +2.0000
iter:  20  13:36:47  -6.93  -4.45    -9.678857    1               +2.0000
iter:  21  13:36:48  -6.91  -4.64    -9.678857    2               +2.0000
iter:  22  13:36:50  -7.53  -4.22    -9.678856    1               +2.0000

Converged after 22 iterations.

Dipole moment: (-0.000000, 0.000000, 0.000002) |e|*Ang

Total magnetic moment: (0.000000, 0.000000, 1.999857)
Local magnetic moments:
   0 O  ( 0.000000,  0.000000,  0.714212)
   1 O  ( 0.000000,  0.000000,  0.714210)

Energy contributions relative to reference atoms: (reference = -4081.704602)

Kinetic:         +6.416043
Potential:       -7.844995
External:        +0.000000
XC:              -8.686293
Entropy (-ST):   -0.000051
Local:           +0.436414
--------------------------
Free energy:     -9.678882
Extrapolated:    -9.678856

Spin contamination: 0.038200 electrons
Fermi level: -5.91901

                   Up                     Down
 Band  Eigenvalues  Occupancy  Eigenvalues  Occupancy
    0    -32.17481    1.00000    -30.94772    1.00000
    1    -20.84397    1.00000    -19.04164    1.00000
    2    -13.41249    1.00000    -12.51629    1.00000
    3    -13.20967    1.00000    -11.33970    1.00000
    4    -13.17006    1.00000    -11.31081    1.00000
    5     -7.09663    0.99999     -4.78571    0.00001
    6     -7.04665    0.99999     -4.75008    0.00001
    7      0.12518    0.00000     -0.01876    0.00000


Forces in eV/Ang:
  0 O     0.00000    0.00000   -1.97076
  1 O     0.00000    0.00000    1.97064

System changes: positions 

Initializing position-dependent things.

Density initialized from wave functions
                
                
                
       O        
                
       O        
                
                
                

Positions:
   0 O      3.588000    6.214500   13.094824    ( 0.0000,  0.0000,  3.0000)
   1 O      3.588000    6.214500   11.905174    ( 0.0000,  0.0000,  3.0000)

Unit cell:
           periodic     x           y           z      points  spacing
  1. axis:    yes   14.352000    0.000000    0.000000    64     0.1942
  2. axis:    yes   -7.176000   12.429000    0.000000    64     0.1942
  3. axis:    no     0.000000    0.000000   25.000000   135     0.1852

  Lengths:  14.352000  14.351830  25.000000
  Angles:   90.000000  90.000000 120.000392

Effective grid spacing dv^(1/3) = 0.2005

                     log10-error:    total        iterations:
           time      wfs    density  energy       fermi  poisson  magmom
iter:   1  13:36:52  -1.16   +inf    -9.701555    7               +1.9999
iter:   2  13:36:54  -2.63  -1.79    -9.699837    2               +2.0000
iter:   3  13:36:56  -1.83  -1.80    -9.679205    2               +2.0000
iter:   4  13:36:57  -3.55  -2.30    -9.675275    2               +2.0000
iter:   5  13:36:59  -5.07  -2.74    -9.675302    1               +2.0000
iter:   6  13:37:01  -4.10  -2.74    -9.675861    1               +2.0000
iter:   7  13:37:03  -3.57  -2.56    -9.675353    1               +2.0000
iter:   8  13:37:04  -5.03  -3.41    -9.675355    1               +2.0000
iter:   9  13:37:06  -5.41  -3.37    -9.675374    1               +2.0000
iter:  10  13:37:08  -4.95  -3.22    -9.675334    2               +2.0000
iter:  11  13:37:10  -6.41  -3.97    -9.675335    1               +2.0000
iter:  12  13:37:11  -6.97  -3.98    -9.675335    1               +2.0000
iter:  13  13:37:13  -7.29  -4.06    -9.675335    1               +2.0000
iter:  14  13:37:15  -7.25  -4.20    -9.675335    1               +2.0000
iter:  15  13:37:17  -7.98  -4.50    -9.675335    1               +2.0000

Converged after 15 iterations.

Dipole moment: (-0.000000, 0.000000, -0.000001) |e|*Ang

Total magnetic moment: (0.000000, 0.000000, 1.999997)
Local magnetic moments:
   0 O  ( 0.000000,  0.000000,  0.709741)
   1 O  ( 0.000000,  0.000000,  0.709746)

Energy contributions relative to reference atoms: (reference = -4081.704602)

Kinetic:        +11.641802
Potential:      -11.719186
External:        +0.000000
XC:             -10.034724
Entropy (-ST):   -0.000049
Local:           +0.436798
--------------------------
Free energy:     -9.675359
Extrapolated:    -9.675335

Spin contamination: 0.036927 electrons
Fermi level: -5.45627

                   Up                     Down
 Band  Eigenvalues  Occupancy  Eigenvalues  Occupancy
    0    -33.33778    1.00000    -32.15701    1.00000
    1    -20.38763    1.00000    -18.59076    1.00000
    2    -13.70293    1.00000    -12.63349    1.00000
    3    -13.66303    1.00000    -11.84023    1.00000
    4    -13.57295    1.00000    -11.81082    1.00000
    5     -6.63824    0.99999     -4.31858    0.00001
    6     -6.58837    0.99999     -4.28285    0.00001
    7     -0.29135    0.00000     -0.17840    0.00000


Forces in eV/Ang:
  0 O     0.00000    0.00000    2.39339
  1 O     0.00000    0.00000   -2.39326

System changes: positions 

Initializing position-dependent things.

Density initialized from wave functions
                
                
                
       O        
                
       O        
                
                
                

Positions:
   0 O      3.588000    6.214500   13.110264    ( 0.0000,  0.0000,  3.0000)
   1 O      3.588000    6.214500   11.889735    ( 0.0000,  0.0000,  3.0000)

Unit cell:
           periodic     x           y           z      points  spacing
  1. axis:    yes   14.352000    0.000000    0.000000    64     0.1942
  2. axis:    yes   -7.176000   12.429000    0.000000    64     0.1942
  3. axis:    no     0.000000    0.000000   25.000000   135     0.1852

  Lengths:  14.352000  14.351830  25.000000
  Angles:   90.000000  90.000000 120.000392

Effective grid spacing dv^(1/3) = 0.2005

                     log10-error:    total        iterations:
           time      wfs    density  energy       fermi  poisson  magmom
iter:   1  13:37:19  -1.58   +inf    -9.716603    5               +2.0000
iter:   2  13:37:20  -3.03  -2.03    -9.716022    2               +2.0000
iter:   3  13:37:22  -2.11  -2.04    -9.711252    1               +2.0000
iter:   4  13:37:24  -3.49  -2.29    -9.707394    1               +2.0000
iter:   5  13:37:26  -4.83  -2.92    -9.707396    1               +2.0000
iter:   6  13:37:27  -5.05  -2.95    -9.707583    1               +2.0000
iter:   7  13:37:29  -4.10  -2.90    -9.707385    1               +2.0000
iter:   8  13:37:31  -5.08  -3.87    -9.707393    1               +2.0000
iter:   9  13:37:33  -6.00  -3.61    -9.707392    1               +2.0000
iter:  10  13:37:34  -6.13  -3.62    -9.707386    1               +2.0000
iter:  11  13:37:36  -6.85  -3.93    -9.707385    1               +2.0000
iter:  12  13:37:38  -6.80  -3.98    -9.707384    1               +2.0000
iter:  13  13:37:39  -6.86  -4.19    -9.707384    1               +2.0000
iter:  14  13:37:41  -7.40  -4.56    -9.707384    1               +2.0000

Converged after 14 iterations.

Dipole moment: (-0.000000, 0.000000, -0.000007) |e|*Ang

Total magnetic moment: (0.000000, 0.000000, 1.999951)
Local magnetic moments:
   0 O  ( 0.000000,  0.000000,  0.712503)
   1 O  ( 0.000000,  0.000000,  0.712510)

Energy contributions relative to reference atoms: (reference = -4081.704602)

Kinetic:         +8.620099
Potential:       -9.488615
External:        +0.000000
XC:              -9.275180
Entropy (-ST):   -0.000050
Local:           +0.436337
--------------------------
Free energy:     -9.707409
Extrapolated:    -9.707384

Spin contamination: 0.037656 electrons
Fermi level: -5.71648

                   Up                     Down
 Band  Eigenvalues  Occupancy  Eigenvalues  Occupancy
    0    -32.68158    1.00000    -31.47511    1.00000
    1    -20.63871    1.00000    -18.83865    1.00000
    2    -13.48374    1.00000    -12.56825    1.00000
    3    -13.42196    1.00000    -11.55505    1.00000
    4    -13.38222    1.00000    -11.52598    1.00000
    5     -6.89636    0.99999     -4.58093    0.00001
    6     -6.84641    0.99999     -4.54524    0.00001
    7     -0.28928    0.00000     -0.18411    0.00000


Forces in eV/Ang:
  0 O     0.00000    0.00000   -0.21712
  1 O     0.00000    0.00000    0.21755

System changes: positions 

Initializing position-dependent things.

Density initialized from wave functions
                
                
                
       O        
                
       O        
                
                
                

Positions:
   0 O      3.588000    6.214500   13.108982    ( 0.0000,  0.0000,  3.0000)
   1 O      3.588000    6.214500   11.891023    ( 0.0000,  0.0000,  3.0000)

Unit cell:
           periodic     x           y           z      points  spacing
  1. axis:    yes   14.352000    0.000000    0.000000    64     0.1942
  2. axis:    yes   -7.176000   12.429000    0.000000    64     0.1942
  3. axis:    no     0.000000    0.000000   25.000000   135     0.1852

  Lengths:  14.352000  14.351830  25.000000
  Angles:   90.000000  90.000000 120.000392

Effective grid spacing dv^(1/3) = 0.2005

                     log10-error:    total        iterations:
           time      wfs    density  energy       fermi  poisson  magmom
iter:   1  13:37:43  -3.78   +inf    -9.707758    2               +2.0000
iter:   2  13:37:45  -5.23  -3.12    -9.707754    1               +2.0000
iter:   3  13:37:47  -4.34  -3.13    -9.707718    1               +2.0000
iter:   4  13:37:49  -5.83  -3.44    -9.707698    1               +2.0000
iter:   5  13:37:50  -7.33  -4.01    -9.707698    1               +2.0000
iter:   6  13:37:52  -6.59  -4.00    -9.707697    1               +2.0000
iter:   7  13:37:54  -7.41  -4.18    -9.707698    1               +2.0000

Converged after 7 iterations.

Dipole moment: (-0.000000, 0.000000, -0.000011) |e|*Ang

Total magnetic moment: (0.000000, 0.000000, 1.999972)
Local magnetic moments:
   0 O  ( 0.000000,  0.000000,  0.712397)
   1 O  ( 0.000000,  0.000000,  0.712406)

Energy contributions relative to reference atoms: (reference = -4081.704602)

Kinetic:         +8.862409
Potential:       -9.676536
External:        +0.000000
XC:              -9.336491
Entropy (-ST):   -0.000050
Local:           +0.442945
--------------------------
Free energy:     -9.707722
Extrapolated:    -9.707698

Spin contamination: 0.037601 electrons
Fermi level: -5.69565

                   Up                     Down
 Band  Eigenvalues  Occupancy  Eigenvalues  Occupancy
    0    -32.73555    1.00000    -31.53117    1.00000
    1    -20.61790    1.00000    -18.81804    1.00000
    2    -13.49112    1.00000    -12.57362    1.00000
    3    -13.44480    1.00000    -11.57817    1.00000
    4    -13.40505    1.00000    -11.54908    1.00000
    5     -6.87578    0.99999     -4.55985    0.00001
    6     -6.82583    0.99999     -4.52415    0.00001
    7     -0.28933    0.00000     -0.18343    0.00000


Forces in eV/Ang:
  0 O     0.00000    0.00000   -0.00181
  1 O     0.00000    0.00000    0.00296

Timing:                                      incl.     excl.
-------------------------------------------------------------------
Density initialized from wave functions:     1.210     0.768   0.7% |
 Symmetrize density:                         0.441     0.441   0.4% |
Forces:                                      0.667     0.667   0.6% |
Hamiltonian:                                 4.579     0.058   0.1% |
 Atomic:                                     0.001     0.001   0.0% |
  XC Correction:                             0.000     0.000   0.0% |
 Calculate atomic Hamiltonians:              0.055     0.055   0.1% |
 Communicate:                                0.318     0.318   0.3% |
 Initialize Hamiltonian:                     0.001     0.001   0.0% |
 Poisson:                                    0.014     0.014   0.0% |
 XC 3D grid:                                 4.132     4.132   4.0% |-|
LCAO initialization:                         0.170     0.087   0.1% |
 LCAO eigensolver:                           0.011     0.000   0.0% |
  Calculate projections:                     0.000     0.000   0.0% |
  DenseAtomicCorrection:                     0.000     0.000   0.0% |
  Distribute overlap matrix:                 0.002     0.002   0.0% |
  Orbital Layouts:                           0.009     0.009   0.0% |
  Potential matrix:                          0.000     0.000   0.0% |
 LCAO to grid:                               0.066     0.066   0.1% |
 Set positions (LCAO WFS):                   0.006     0.002   0.0% |
  Basic WFS set positions:                   0.000     0.000   0.0% |
  Basis functions set positions:             0.000     0.000   0.0% |
  P tci:                                     0.000     0.000   0.0% |
  ST tci:                                    0.001     0.001   0.0% |
  mktci:                                     0.003     0.003   0.0% |
PWDescriptor:                                0.081     0.081   0.1% |
Redistribute:                                0.002     0.002   0.0% |
SCF-cycle:                                  94.782     0.048   0.0% |
 Davidson:                                  10.754     0.882   0.8% |
  Apply H:                                   4.697     4.606   4.4% |-|
   HMM T:                                    0.092     0.092   0.1% |
  Subspace diag:                             1.679     0.007   0.0% |
   calc_h_matrix:                            1.607     0.039   0.0% |
    Apply H:                                 1.568     1.538   1.5% ||
     HMM T:                                  0.030     0.030   0.0% |
   diagonalize:                              0.016     0.016   0.0% |
   rotate_psi:                               0.049     0.049   0.0% |
  calc. matrices:                            3.391     0.254   0.2% |
   Apply H:                                  3.137     3.076   3.0% ||
    HMM T:                                   0.061     0.061   0.1% |
  diagonalize:                               0.030     0.030   0.0% |
  rotate_psi:                                0.075     0.075   0.1% |
 Density:                                   21.944     0.001   0.0% |
  Atomic density matrices:                   0.043     0.043   0.0% |
  Mix:                                      12.400    12.400  11.9% |----|
  Multipole moments:                         0.008     0.008   0.0% |
  Pseudo density:                            9.491     1.545   1.5% ||
   Symmetrize density:                       7.946     7.946   7.6% |--|
 Hamiltonian:                               62.023     0.806   0.8% |
  Atomic:                                    0.018     0.017   0.0% |
   XC Correction:                            0.000     0.000   0.0% |
  Calculate atomic Hamiltonians:             0.821     0.821   0.8% |
  Communicate:                               4.163     4.163   4.0% |-|
  Poisson:                                   0.181     0.181   0.2% |
  XC 3D grid:                               56.034    56.034  53.9% |---------------------|
 Orthonormalize:                             0.014     0.000   0.0% |
  calc_s_matrix:                             0.002     0.002   0.0% |
  inverse-cholesky:                          0.001     0.001   0.0% |
  projections:                               0.009     0.009   0.0% |
  rotate_psi_s:                              0.002     0.002   0.0% |
Set symmetry:                                0.002     0.002   0.0% |
Other:                                       2.415     2.415   2.3% ||
-------------------------------------------------------------------
Total:                                               103.908 100.0%

Memory usage: 363.57 MiB
Date: Tue Jul 30 13:37:54 2019
