
  ___ ___ ___ _ _ _  
 |   |   |_  | | | | 
 | | | | | . | | | | 
 |__ |  _|___|_____|  1.5.1
 |___|_|             

User:   siva@s84n22.grendel.cscaa.dk
Date:   Thu Feb 27 10:51:25 2020
Arch:   x86_64
Pid:    24171
Python: 3.6.3
gpaw:   /home/siva/gpaw-1.5.1/gpaw
_gpaw:  /home/siva/gpaw-1.5.1/build/bin.linux-x86_64-3.6/gpaw-python
ase:    /home/siva/env1.5/lib/python3.6/site-packages/ase (version 3.17.0)
numpy:  /home/siva/env1.5/lib/python3.6/site-packages/numpy (version 1.16.0)
scipy:  /home/siva/env1.5/lib/python3.6/site-packages/scipy (version 1.2.0)
units:  Angstrom and eV
cores:  100
Extra parameters: {'blacs': True}

Input parameters:
  basis: dzp
  kpts: [2 2 1]
  maxiter: 99
  mode: {ecut: 500.0,
         gammacentered: False,
         name: pw}
  xc: PBE

System changes: positions, numbers, cell, pbc, initial_charges, initial_magmoms 

Initialize ...

O-setup:
  name: Oxygen
  id: 32ecd46bf208036f09c70b0ec9a88b78
  Z: 8
  valence: 6
  core: 2
  charge: 0.0
  file: /home/wido/sw/gpaw/basis/gpaw-setups-0.9.20000/O.PBE.gz
  cutoffs: 0.67(comp), 1.17(filt), 0.83(core), lmax=2
  valence states:
                energy  radius
    2s(2.00)   -23.961   0.688
    2p(4.00)    -9.029   0.598
    *s           3.251   0.688
    *p          18.182   0.598
    *d           0.000   0.619

  LCAO basis set for O:
    Name: dzp
    File: /home/wido/sw/gpaw/basis/gpaw-setups-0.9.20000/O.dzp.basis.gz
    Number of radial functions: 5
    Number of spherical harmonics: 13
      l=0, rc=4.3438 Bohr: 2s-sz confined orbital
      l=1, rc=5.3906 Bohr: 2p-sz confined orbital
      l=0, rc=2.2969 Bohr: 2s-dz split-valence wave
      l=1, rc=2.8906 Bohr: 2p-dz split-valence wave
      l=2, rc=5.3906 Bohr: d-type Gaussian polarization

Ti-setup:
  name: Titanium
  id: d282db07e62ae71292040bf25b25ccdd
  Z: 22
  valence: 12
  core: 10
  charge: 0.0
  file: /home/wido/sw/gpaw/basis/gpaw-setups-0.9.20000/Ti.PBE.gz
  cutoffs: 1.22(comp), 2.23(filt), 1.02(core), lmax=2
  valence states:
                energy  radius
    3s(2.00)   -62.623   1.270
    4s(2.00)    -4.466   1.270
    3p(6.00)   -38.862   1.058
    4p(0.00)    -1.466   1.058
    3d(2.00)    -4.258   1.058
    *d          22.953   1.058

  LCAO basis set for Ti:
    Name: dzp
    File: /home/wido/sw/gpaw/basis/gpaw-setups-0.9.20000/Ti.dzp.basis.gz
    Number of radial functions: 11
    Number of spherical harmonics: 29
      l=0, rc=3.4375 Bohr: 3s-sz confined orbital
      l=0, rc=9.9062 Bohr: 4s-sz confined orbital
      l=1, rc=3.8906 Bohr: 3p-sz confined orbital
      l=1, rc=13.1094 Bohr: 4p-sz confined orbital
      l=2, rc=6.6250 Bohr: 3d-sz confined orbital
      l=0, rc=2.1406 Bohr: 3s-dz split-valence wave
      l=0, rc=6.0156 Bohr: 4s-dz split-valence wave
      l=1, rc=2.3125 Bohr: 3p-dz split-valence wave
      l=1, rc=8.1094 Bohr: 4p-dz split-valence wave
      l=2, rc=3.8594 Bohr: 3d-dz split-valence wave
      l=1, rc=9.9062 Bohr: p-type Gaussian polarization

V-setup:
  name: Vanadium
  id: a8354638d66c808f8c867a10b63fd727
  Z: 23
  valence: 13
  core: 10
  charge: 0.0
  file: /home/wido/sw/gpaw/basis/gpaw-setups-0.9.20000/V.PBE.gz
  cutoffs: 1.19(comp), 2.14(filt), 0.96(core), lmax=2
  valence states:
                energy  radius
    3s(2.00)   -70.222   1.254
    4s(2.00)    -4.702   1.254
    3p(6.00)   -44.043   1.281
    4p(0.00)    -1.444   1.281
    3d(3.00)    -5.164   1.169
    *d          22.047   1.169

  LCAO basis set for V:
    Name: dzp
    File: /home/wido/sw/gpaw/basis/gpaw-setups-0.9.20000/V.dzp.basis.gz
    Number of radial functions: 11
    Number of spherical harmonics: 29
      l=0, rc=3.2656 Bohr: 3s-sz confined orbital
      l=0, rc=9.5312 Bohr: 4s-sz confined orbital
      l=1, rc=3.6719 Bohr: 3p-sz confined orbital
      l=1, rc=12.8750 Bohr: 4p-sz confined orbital
      l=2, rc=6.0938 Bohr: 3d-sz confined orbital
      l=0, rc=2.0625 Bohr: 3s-dz split-valence wave
      l=0, rc=5.7656 Bohr: 4s-dz split-valence wave
      l=1, rc=2.4062 Bohr: 3p-dz split-valence wave
      l=1, rc=7.8906 Bohr: 4p-dz split-valence wave
      l=2, rc=3.6562 Bohr: 3d-dz split-valence wave
      l=1, rc=9.5312 Bohr: p-type Gaussian polarization

H-setup:
  name: Hydrogen
  id: d65de229564ff8ea4db303e23b6d1ecf
  Z: 1
  valence: 1
  core: 0
  charge: 0.0
  file: /home/wido/sw/gpaw/basis/gpaw-setups-0.9.20000/H.PBE.gz
  cutoffs: 0.48(comp), 0.85(filt), 0.53(core), lmax=2
  valence states:
                energy  radius
    1s(1.00)    -6.494   0.476
    *s          20.717   0.476
    *p           0.000   0.476

  LCAO basis set for H:
    Name: dzp
    File: /home/wido/sw/gpaw/basis/gpaw-setups-0.9.20000/H.dzp.basis.gz
    Number of radial functions: 3
    Number of spherical harmonics: 5
      l=0, rc=6.4219 Bohr: 1s-sz confined orbital
      l=0, rc=3.6094 Bohr: 1s-dz split-valence wave
      l=1, rc=6.4219 Bohr: p-type Gaussian polarization

Reference energy: -935653.237240

Spin-paired calculation

Occupation numbers:
  Fermi-Dirac: width=0.1000 eV

Convergence criteria:
  Maximum total energy change: 0.0005 eV / electron
  Maximum integral of absolute density change: 0.0001 electrons
  Maximum integral of absolute eigenstate change: 4e-08 eV^2
  Maximum number of iterations: 99

Symmetries present (total): 1

  ( 1  0  0)
  ( 0  1  0)
  ( 0  0  1)

4 k-points: 2 x 2 x 1 Monkhorst-Pack grid
2 k-points in the irreducible part of the Brillouin zone
       k-points in crystal coordinates                weights
   0:     0.25000000   -0.25000000    0.00000000          2/4
   1:     0.25000000    0.25000000    0.00000000          2/4

Wave functions: Plane wave expansion
  Cutoff energy: 500.000 eV
  Number of coefficients (min, max): 94343, 94343
  Pulay-stress correction: 0.000000 eV/Ang^3 (de/decut=0.000000)
  Using FFTW library
  ScaLapack parameters: grid=1x1, blocksize=None
  Wavefunction extrapolation:
    Improved wavefunction reuse through dual PAW basis 

Eigensolver
   Davidson(niter=2, smin=None, normalize=True) 

Densities:
  Coarse grid: 54*80*125 grid
  Fine grid: 108*160*250 grid
  Total Charge: 0.000000 

Density mixing:
  Method: separate
  Backend: pulay
  Linear mixing parameter: 0.05
  Mixing with 5 old densities
  Damping of long wave oscillations: 50 

Hamiltonian:
  XC and Coulomb potentials evaluated on a 108*160*250 grid
  Using the PBE Exchange-Correlation functional
 

XC parameters: PBE with 2 nearest neighbor stencil

Memory estimate:
  Process memory now: 329.98 MiB
  Calculator: 1549.87 MiB
    Density: 33.11 MiB
      Arrays: 10.71 MiB
      Localized functions: 18.27 MiB
      Mixer: 4.12 MiB
    Hamiltonian: 7.53 MiB
      Arrays: 7.00 MiB
      XC: 0.00 MiB
      Poisson: 0.00 MiB
      vbar: 0.53 MiB
    Wavefunctions: 1509.23 MiB
      Arrays psit_nG: 719.78 MiB
      Eigensolver: 765.14 MiB
      Projections: 1.16 MiB
      Projectors: 2.09 MiB
      PW-descriptor: 21.07 MiB

Total number of cores used: 20
Parallelization over k-points: 2
Domain decomposition: 1 x 2 x 5

Number of atoms: 105
Number of atomic orbitals: 1893
Number of bands in calculation: 500
Bands to converge: occupied states only
Number of valence electrons: 826

... initialized

Initializing position-dependent things.

Density initialized from atomic densities
Creating initial wave functions:
  500 bands from LCAO basis set

          .------------------------.  
         /|                        |  
        / |                        |  
       /  |                        |  
      /   |                        |  
     /    |                        |  
    /     |                        |  
   /      |                        |  
  /       |                        |  
 *        |                        |  
 |        |                        |  
 |        |                        |  
 |        |                        |  
 |        O      O                 |  
 |        |   Oi      O   H OO     |  
 |      O | H  OV  O     OTi     Ti|  
 |        | Oi     Oi     O V O    |  
 |    O   |      O     OTiO   TiO  |  
 |        TiO    O          O      |  
 |        O     TiO  OTi O   Ti    |  
 |  O     |O  OTii    Ti   OTiO  O |  
 |     OTii  O OO    OO   O        |  
 |      OO| O     OTii    Tii      |  
 |   OTi  | Tii     O   OO     O   |  
 |    O   |O     OTi     Oi        |  
 |  Ti    TO   O  O    O     O     |  
 |  O    O|     Ti    Ti           |  
 |       Ti         O      O       |  
 |        |  O                     |  
 |        .------------------------.  
 |       /                        /   
 |      /                        /    
 |     /                        /     
 |    /                        /      
 |   /                        /       
 |  /                        /        
 | /                        /         
 |/                        /          
 *------------------------*           

Positions:
   0 O      9.976216    2.858233    7.393137    ( 0.0000,  0.0000,  0.0000)
   1 O      4.756852    0.969712    7.426553    ( 0.0000,  0.0000,  0.0000)
   2 Ti     2.977499    0.965811    8.324388    ( 0.0000,  0.0000,  0.0000)
   3 Ti     8.194414    2.799945    8.281978    ( 0.0000,  0.0000,  0.0000)
   4 Ti     0.620784    2.839791    8.988586    ( 0.0000,  0.0000,  0.0000)
   5 Ti     5.858715    0.936794    8.952141    ( 0.0000,  0.0000,  0.0000)
   6 O      1.070583    0.957871    8.944548    ( 0.0000,  0.0000,  0.0000)
   7 O      6.332133    2.843751    8.931186    ( 0.0000,  0.0000,  0.0000)
   8 O      9.252496    2.776042    9.819870    ( 0.0000,  0.0000,  0.0000)
   9 O      4.058145    0.977541    9.845844    ( 0.0000,  0.0000,  0.0000)
  10 O      7.755614    0.923678    8.321805    ( 0.0000,  0.0000,  0.0000)
  11 O      2.531474    2.891276    8.352118    ( 0.0000,  0.0000,  0.0000)
  12 O      1.085351    2.902444   10.998605    ( 0.0000,  0.0000,  0.0000)
  13 O      6.283784    0.926328   10.956752    ( 0.0000,  0.0000,  0.0000)
  14 Ti     4.396321    0.983278   11.921128    ( 0.0000,  0.0000,  0.0000)
  15 Ti     9.558667    2.821704   11.878976    ( 0.0000,  0.0000,  0.0000)
  16 Ti     2.013452    2.859483   12.521819    ( 0.0000,  0.0000,  0.0000)
  17 Ti     7.195833    0.938213   12.483741    ( 0.0000,  0.0000,  0.0000)
  18 O      2.560630    0.970630   12.709567    ( 0.0000,  0.0000,  0.0000)
  19 O      7.725580    2.853719   12.706635    ( 0.0000,  0.0000,  0.0000)
  20 O      0.379459    2.847794   13.400790    ( 0.0000,  0.0000,  0.0000)
  21 O      5.570105    1.038020   13.347938    ( 0.0000,  0.0000,  0.0000)
  22 O      9.168417    0.945929   11.928696    ( 0.0000,  0.0000,  0.0000)
  23 O      3.955231    2.917083   11.898315    ( 0.0000,  0.0000,  0.0000)
  24 O      9.990820    6.700489    7.347931    ( 0.0000,  0.0000,  0.0000)
  25 O      4.533567    4.787556    8.131791    ( 0.0000,  0.0000,  0.0000)
  26 Ti     2.734976    4.781982    7.960916    ( 0.0000,  0.0000,  0.0000)
  27 Ti     8.159565    6.716102    8.201907    ( 0.0000,  0.0000,  0.0000)
  28 Ti     0.644391    6.695757    9.088516    ( 0.0000,  0.0000,  0.0000)
  29 Ti     6.068164    4.766611    9.120597    ( 0.0000,  0.0000,  0.0000)
  30 O      1.031476    4.770664    8.928149    ( 0.0000,  0.0000,  0.0000)
  31 O      6.356063    6.707872    8.936695    ( 0.0000,  0.0000,  0.0000)
  32 O      9.237723    6.752310    9.760711    ( 0.0000,  0.0000,  0.0000)
  33 O      7.843387    4.773964    8.359031    ( 0.0000,  0.0000,  0.0000)
  34 O      2.516227    6.663697    8.340747    ( 0.0000,  0.0000,  0.0000)
  35 O      1.066019    6.540024   11.057676    ( 0.0000,  0.0000,  0.0000)
  36 O      5.859579    4.741069   10.931769    ( 0.0000,  0.0000,  0.0000)
  37 Ti     4.429667    4.791375   12.242813    ( 0.0000,  0.0000,  0.0000)
  38 Ti     9.421083    6.657000   11.674311    ( 0.0000,  0.0000,  0.0000)
  39 Ti     2.031425    6.632991   12.674957    ( 0.0000,  0.0000,  0.0000)
  40 Ti     7.395958    4.754877   12.927454    ( 0.0000,  0.0000,  0.0000)
  41 O      2.547033    4.733966   12.932369    ( 0.0000,  0.0000,  0.0000)
  42 O      7.632953    6.664048   12.533756    ( 0.0000,  0.0000,  0.0000)
  43 O      0.350926    6.682043   13.444912    ( 0.0000,  0.0000,  0.0000)
  44 O      5.658786    4.786468   13.556051    ( 0.0000,  0.0000,  0.0000)
  45 O      9.088786    4.774569   11.795200    ( 0.0000,  0.0000,  0.0000)
  46 O      3.948888    6.589758   11.815486    ( 0.0000,  0.0000,  0.0000)
  47 O      9.948766   10.527875    7.408214    ( 0.0000,  0.0000,  0.0000)
  48 O      4.801079    8.598520    7.385338    ( 0.0000,  0.0000,  0.0000)
  49 Ti     2.928556    8.600038    8.224939    ( 0.0000,  0.0000,  0.0000)
  50 Ti     8.163046   10.570899    8.284136    ( 0.0000,  0.0000,  0.0000)
  51 Ti     0.692170   10.524457    9.134137    ( 0.0000,  0.0000,  0.0000)
  52 Ti     5.898248    8.628813    8.909431    ( 0.0000,  0.0000,  0.0000)
  53 O      1.092398    8.596554    8.983999    ( 0.0000,  0.0000,  0.0000)
  54 O      6.260853   10.527132    8.922339    ( 0.0000,  0.0000,  0.0000)
  55 O      9.226336   10.549273    9.823036    ( 0.0000,  0.0000,  0.0000)
  56 O      4.062725    8.522643    9.744956    ( 0.0000,  0.0000,  0.0000)
  57 O      7.763687    8.628435    8.276164    ( 0.0000,  0.0000,  0.0000)
  58 O      2.572933   10.493078    8.366415    ( 0.0000,  0.0000,  0.0000)
  59 O      1.072301   10.547223   11.055945    ( 0.0000,  0.0000,  0.0000)
  60 O      6.218304    8.668154   11.008645    ( 0.0000,  0.0000,  0.0000)
  61 Ti     4.251608    8.612520   11.636233    ( 0.0000,  0.0000,  0.0000)
  62 Ti     9.512472   10.570717   11.866825    ( 0.0000,  0.0000,  0.0000)
  63 Ti     2.078014   10.547530   12.761919    ( 0.0000,  0.0000,  0.0000)
  64 Ti     7.215862    8.629477   12.532942    ( 0.0000,  0.0000,  0.0000)
  65 O      2.503041    8.560816   12.428614    ( 0.0000,  0.0000,  0.0000)
  66 O      7.659022   10.525531   12.652718    ( 0.0000,  0.0000,  0.0000)
  67 O      0.381524   10.532460   13.446236    ( 0.0000,  0.0000,  0.0000)
  68 O      5.301970    8.607401   13.408363    ( 0.0000,  0.0000,  0.0000)
  69 O      9.017956    8.597536   11.820674    ( 0.0000,  0.0000,  0.0000)
  70 O      3.977791   10.508335   11.782891    ( 0.0000,  0.0000,  0.0000)
  71 O      9.929764   14.340311    7.430505    ( 0.0000,  0.0000,  0.0000)
  72 O      4.759268   12.419903    7.421972    ( 0.0000,  0.0000,  0.0000)
  73 Ti     2.973413   12.427060    8.313700    ( 0.0000,  0.0000,  0.0000)
  74 Ti     8.159057   14.365702    8.323752    ( 0.0000,  0.0000,  0.0000)
  75 Ti     0.656049   14.336438    8.970043    ( 0.0000,  0.0000,  0.0000)
  76 Ti     5.834925   12.456311    8.969397    ( 0.0000,  0.0000,  0.0000)
  77 O      1.080559   12.417619    8.947584    ( 0.0000,  0.0000,  0.0000)
  78 O      6.237742   14.348729    8.924053    ( 0.0000,  0.0000,  0.0000)
  79 O      9.220160   14.356076    9.859022    ( 0.0000,  0.0000,  0.0000)
  80 O      4.048950   12.465460    9.838585    ( 0.0000,  0.0000,  0.0000)
  81 O      7.746147   12.450358    8.354766    ( 0.0000,  0.0000,  0.0000)
  82 O      2.558641   14.335276    8.356645    ( 0.0000,  0.0000,  0.0000)
  83 O      1.099166   14.344245   10.981624    ( 0.0000,  0.0000,  0.0000)
  84 O      6.264129   12.468642   10.970533    ( 0.0000,  0.0000,  0.0000)
  85 Ti     4.386774   12.417521   11.899511    ( 0.0000,  0.0000,  0.0000)
  86 Ti     9.573044   14.365010   11.947541    ( 0.0000,  0.0000,  0.0000)
  87 Ti     2.038283   14.353147   12.494298    ( 0.0000,  0.0000,  0.0000)
  88 Ti     7.169867   12.464773   12.534553    ( 0.0000,  0.0000,  0.0000)
  89 O      2.562727   12.441603   12.707981    ( 0.0000,  0.0000,  0.0000)
  90 O      7.714628   14.347943   12.716195    ( 0.0000,  0.0000,  0.0000)
  91 O      0.427538   14.335101   13.389098    ( 0.0000,  0.0000,  0.0000)
  92 O      5.537178   12.390586   13.359455    ( 0.0000,  0.0000,  0.0000)
  93 O      9.162479   12.428732   11.915339    ( 0.0000,  0.0000,  0.0000)
  94 O      4.015773   14.346104   11.935025    ( 0.0000,  0.0000,  0.0000)
  95 V      3.986970    8.665041   14.684103    ( 0.0000,  0.0000,  0.0000)
  96 O      3.013995   10.101412   14.484499    ( 0.0000,  0.0000,  0.0000)
  97 O      2.995389    7.098189   14.532574    ( 0.0000,  0.0000,  0.0000)
  98 O      4.620464    8.671607   16.141012    ( 0.0000,  0.0000,  0.0000)
  99 V      9.239385    7.327359   14.724761    ( 0.0000,  0.0000,  0.0000)
 100 O      9.087692    5.570421   14.574312    ( 0.0000,  0.0000,  0.0000)
 101 O      8.057125    8.325772   14.559158    ( 0.0000,  0.0000,  0.0000)
 102 O      9.905855    7.403325   16.149270    ( 0.0000,  0.0000,  0.0000)
 103 H      7.999602    8.811191   15.313317    ( 0.0000,  0.0000,  0.0000)
 104 H      2.895921    7.226968   15.334331    ( 0.0000,  0.0000,  0.0000)

Unit cell:
           periodic     x           y           z      points  spacing
  1. axis:    yes   10.341746    0.000000    0.000000    54     0.1915
  2. axis:    yes   -0.000000   15.289380    0.000000    80     0.1911
  3. axis:    yes    0.000000    0.000000   23.497201   125     0.1880

  Lengths:  10.341746  15.289380  23.497201
  Angles:   90.000000  90.000000  90.000000

Effective grid spacing dv^(1/3) = 0.1902

                     log10-error:    total        iterations:
           time      wfs    density  energy       fermi  poisson
iter:   1  10:53:23  -0.08   +inf  -974.036092    3             
iter:   2  10:53:55  -0.95  -0.95  -931.244868    32            
iter:   3  10:54:26  +0.40  -1.00  -854.115080    37            
iter:   4  10:54:57  -0.39  -1.30  -854.382333    35            
iter:   5  10:55:28  -1.33  -1.34  -855.448019    35            
iter:   6  10:56:00  -1.22  -1.35  -862.247371    35            
iter:   7  10:56:31  -0.95  -1.38  -856.266221    35            
iter:   8  10:57:03  -1.21  -1.59  -857.245753    34            
iter:   9  10:57:34  -1.91  -1.72  -855.597952    4             
iter:  10  10:58:06  -1.52  -1.86  -854.620829    3             
iter:  11  10:58:36  -2.38  -2.08  -853.902365    5             
iter:  12  10:59:07  -2.55  -2.18  -853.533151    4             
iter:  13  10:59:39  -2.79  -2.28  -853.482913    3             
iter:  14  11:00:10  -3.00  -2.32  -853.397975    4             
iter:  15  11:00:41  -3.25  -2.37  -853.368125    2             
iter:  16  11:01:13  -3.29  -2.45  -853.383033    4             
iter:  17  11:01:44  -3.73  -2.55  -853.352359    4             
iter:  18  11:02:15  -3.33  -2.64  -853.354434    3             
iter:  19  11:02:47  -4.10  -2.74  -853.349047    3             
iter:  20  11:03:18  -4.51  -2.83  -853.348272    3             
iter:  21  11:03:49  -4.01  -2.92  -853.350005    3             
iter:  22  11:04:21  -4.54  -3.10  -853.348742    3             
iter:  23  11:04:52  -4.60  -3.17  -853.345808    3             
iter:  24  11:05:23  -4.76  -3.28  -853.346628    3             
iter:  25  11:05:54  -5.06  -3.48  -853.348091    3             
iter:  26  11:06:25  -5.35  -3.59  -853.347440    3             
iter:  27  11:06:56  -5.83  -3.73  -853.346791    3             
iter:  28  11:07:28  -5.89  -3.96  -853.347033    2             
iter:  29  11:08:00  -6.47  -4.13  -853.346724    3             
iter:  30  11:08:31  -6.64  -4.22  -853.346922    2             
iter:  31  11:09:03  -6.66  -4.30  -853.346923    2             
iter:  32  11:09:35  -7.23  -4.39  -853.346855    2             
iter:  33  11:10:06  -7.10  -4.54  -853.346876    2             
iter:  34  11:10:36  -7.50  -4.78  -853.346912    2             

Converged after 34 iterations.

Dipole moment: (-0.152075, 1.326987, -0.720080) |e|*Ang

Energy contributions relative to reference atoms: (reference = -935653.237240)

Kinetic:       +658.309084
Potential:     -812.877345
External:        +0.000000
XC:            -704.779940
Entropy (-ST):   -0.520561
Local:           +6.261569
--------------------------
Free energy:   -853.607193
Extrapolated:  -853.346912

Fermi level: -1.25032

Showing all kpts
 Kpt  Band  Eigenvalues  Occupancy
  0   411     -3.10888    1.00000
  0   412     -1.19520    0.36559
  0   413     -1.15328    0.27481
  0   414     -1.09124    0.16928

  1   411     -3.10920    1.00000
  1   412     -1.19219    0.35864
  1   413     -1.15903    0.28641
  1   414     -1.08548    0.16132



Forces in eV/Ang:
  0 O    -1.55533   -0.08941    1.24017
  1 O    -1.09681    0.01474    1.21649
  2 Ti    2.52079   -0.02682    1.12609
  3 Ti    2.36971    0.35920    0.51668
  4 Ti    0.19812    0.11826   -1.52280
  5 Ti   -1.71832    0.15410   -1.17085
  6 O     0.29047   -0.05424   -0.05624
  7 O     0.21322    0.17320   -0.29031
  8 O    -1.39626   -0.03887    0.27470
  9 O    -0.68694   -0.03075   -0.17181
 10 O     0.21610    0.44180   -1.05620
 11 O     0.35270   -0.18416   -1.00429
 12 O    -0.14074   -0.04595   -0.12610
 13 O    -0.01460    0.08644    0.10072
 14 Ti   -0.16036   -0.07289    0.04145
 15 Ti    0.93845    0.42312    1.06097
 16 Ti   -0.41751    0.15133    0.40935
 17 Ti   -0.36316    0.10650    0.00458
 18 O     0.02288   -0.03370    0.08029
 19 O    -0.07102    0.16776    0.24392
 20 O    -0.28414   -0.07481   -1.08923
 21 O     0.10441   -0.06943    0.00833
 22 O     0.08260    0.11413   -0.10018
 23 O     0.25362    0.00239   -0.08293
 24 O    -1.67340   -0.05995    2.14539
 25 O    -0.17711   -0.02910   -0.21420
 26 Ti   -0.18041    0.06281    0.70298
 27 Ti    3.24439    0.47030   -0.12530
 28 Ti    0.51138    0.02692   -2.48172
 29 Ti   -0.41825    0.12925    0.45601
 30 O     0.19709    0.01450   -0.07725
 31 O    -0.09821   -0.33221   -0.10228
 32 O    -1.64047    0.04011    0.85931
 33 O    -0.05701   -0.26078   -0.90131
 34 O     0.35313    0.11626   -1.08319
 35 O    -0.53670    0.08454   -0.07795
 36 O     0.22771   -0.00003    0.45669
 37 Ti   -0.09449   -0.10131   -0.36499
 38 Ti    1.45198   -0.45748    0.56700
 39 Ti   -0.51718   -0.22093   -0.56271
 40 Ti    1.07652    0.63411    0.35187
 41 O     0.09700    0.13499   -0.08527
 42 O    -0.18094    0.29853    0.03868
 43 O    -0.20883    2.15250   -0.90223
 44 O     0.33960    0.04164    0.36001
 45 O    -0.14118   -0.20145    0.00756
 46 O    -0.01612   -0.09519    0.35576
 47 O    -1.68987    0.03358    1.97054
 48 O    -1.08862   -0.02362    1.19773
 49 Ti    2.52681   -0.00206    1.03930
 50 Ti    3.65908   -0.22883    0.11163
 51 Ti   -0.82689    0.01997   -1.81765
 52 Ti   -1.31230    0.16923   -1.33504
 53 O     0.25465   -0.17647    0.03906
 54 O     0.01957    0.01720   -0.13205
 55 O    -1.04615   -0.07380    0.78590
 56 O    -0.89430   -0.00963   -0.06150
 57 O     0.19500   -0.08976   -0.82195
 58 O     0.27923    0.01245   -0.85132
 59 O    -0.47493   -0.07108    0.02178
 60 O     0.09174   -0.17464    0.38386
 61 Ti   -0.14673    0.20470    0.02048
 62 Ti    1.86686    0.15112    0.56730
 63 Ti   -0.76936   -0.10144    0.30621
 64 Ti   -1.00365    0.31457   -1.16854
 65 O     0.10236   -0.17178   -0.20604
 66 O     0.00719    0.11860    0.30902
 67 O    -0.75379   -0.24654   -0.88175
 68 O     0.20479   -0.04646    0.05700
 69 O     0.34741   -0.03570    0.46171
 70 O     0.23834   -0.01050    0.06248
 71 O    -1.20527    0.04937    1.30126
 72 O    -1.17232    0.07629    1.30924
 73 Ti    2.56888   -0.11065    0.97366
 74 Ti    2.86248   -0.97135    0.85048
 75 Ti   -0.87786   -0.23880   -1.28386
 76 Ti   -1.14842   -0.48068   -1.48771
 77 O     0.26140    0.22014   -0.05549
 78 O     0.23416    0.07302   -0.24094
 79 O    -0.73941    0.00756   -0.02810
 80 O    -0.72678   -0.02737   -0.16577
 81 O     0.03778    0.20813   -0.89525
 82 O     0.22564    0.25119   -0.97102
 83 O    -0.18394    0.06896    0.06699
 84 O     0.23371    0.02534    0.56706
 85 Ti   -0.21056   -0.09230   -0.01972
 86 Ti    0.64688   -0.54767    0.17022
 87 Ti    0.10804   -0.22987   -0.01421
 88 Ti   -0.47110   -0.24268   -0.93088
 89 O     0.05121    0.21371    0.05223
 90 O    -0.02656   -0.03952    0.27769
 91 O    -0.33340    0.08867   -0.39480
 92 O     0.29987    0.02282    0.11258
 93 O    -0.11244    0.12837    0.11167
 94 O     0.03784    0.28195   -0.00165
 95 V     0.70878    2.29465   -1.44063
 96 O     0.41777   -0.57223    0.01724
 97 O     2.04725   -1.56371  -12.58698
 98 O     0.04900   -0.19745    0.37757
 99 V    11.03903  -12.88048    0.12597
100 O    -3.30746    0.65045    0.28084
101 O    -8.52249    4.93218   -4.54032
102 O     0.30061    1.18099    0.95166
103 H    -1.08261    3.47484    4.18275
104 H    -2.91329    0.18852   13.90017

System changes: positions 

Initializing position-dependent things.

Density initialized from wave functions
          .------------------------.  
         /|                        |  
        / |                        |  
       /  |                        |  
      /   |                        |  
     /    |                        |  
    /     |                        |  
   /      |                        |  
  /       |                        |  
 *        |                        |  
 |        |                        |  
 |        |                        |  
 |        |                        |  
 |        O      O                 |  
 |        |   Oi      O   H OO     |  
 |      O | H  OV  O     OTi     Ti|  
 |        | Oi     Oi     O V O    |  
 |    O   |      O     OTiO   TiO  |  
 |        TiO    O          O      |  
 |        O     TiO  OTi O   Ti    |  
 |  O     |O  OTii    Ti   OTiO  O |  
 |     OTii  O OO    OO   O        |  
 |      OO| O     OTii    Tii      |  
 |   OTi  | Tii     O   OO     O   |  
 |    O   |O     OTi     Oi        |  
 |  Ti    TO   O  O    O     O     |  
 |  O    O|     Ti    Ti           |  
 |       Ti         O      O       |  
 |        |  O                     |  
 |        .------------------------.  
 |       /                        /   
 |      /                        /    
 |     /                        /     
 |    /                        /      
 |   /                        /       
 |  /                        /        
 | /                        /         
 |/                        /          
 *------------------------*           

Positions:
   0 O      9.976216    2.858233    7.393137    ( 0.0000,  0.0000,  0.0000)
   1 O      4.756852    0.969712    7.426553    ( 0.0000,  0.0000,  0.0000)
   2 Ti     2.977499    0.965811    8.324388    ( 0.0000,  0.0000,  0.0000)
   3 Ti     8.194414    2.799945    8.281978    ( 0.0000,  0.0000,  0.0000)
   4 Ti     0.620784    2.839791    8.988586    ( 0.0000,  0.0000,  0.0000)
   5 Ti     5.858715    0.936794    8.952141    ( 0.0000,  0.0000,  0.0000)
   6 O      1.070583    0.957871    8.944548    ( 0.0000,  0.0000,  0.0000)
   7 O      6.332133    2.843751    8.931186    ( 0.0000,  0.0000,  0.0000)
   8 O      9.252496    2.776042    9.819870    ( 0.0000,  0.0000,  0.0000)
   9 O      4.058145    0.977541    9.845844    ( 0.0000,  0.0000,  0.0000)
  10 O      7.755614    0.923678    8.321805    ( 0.0000,  0.0000,  0.0000)
  11 O      2.531474    2.891276    8.352118    ( 0.0000,  0.0000,  0.0000)
  12 O      1.085163    2.902411   10.998358    ( 0.0000,  0.0000,  0.0000)
  13 O      6.283801    0.926353   10.956792    ( 0.0000,  0.0000,  0.0000)
  14 Ti     4.396098    0.983240   11.921067    ( 0.0000,  0.0000,  0.0000)
  15 Ti     9.559797    2.822223   11.880086    ( 0.0000,  0.0000,  0.0000)
  16 Ti     2.012925    2.859676   12.522240    ( 0.0000,  0.0000,  0.0000)
  17 Ti     7.195360    0.938341   12.483677    ( 0.0000,  0.0000,  0.0000)
  18 O      2.560687    0.970616   12.709547    ( 0.0000,  0.0000,  0.0000)
  19 O      7.725459    2.853955   12.706690    ( 0.0000,  0.0000,  0.0000)
  20 O      0.379132    2.847687   13.399400    ( 0.0000,  0.0000,  0.0000)
  21 O      5.570221    1.038125   13.347858    ( 0.0000,  0.0000,  0.0000)
  22 O      9.168496    0.946080   11.928452    ( 0.0000,  0.0000,  0.0000)
  23 O      3.955480    2.917140   11.897929    ( 0.0000,  0.0000,  0.0000)
  24 O      9.990820    6.700489    7.347931    ( 0.0000,  0.0000,  0.0000)
  25 O      4.533567    4.787556    8.131791    ( 0.0000,  0.0000,  0.0000)
  26 Ti     2.734976    4.781982    7.960916    ( 0.0000,  0.0000,  0.0000)
  27 Ti     8.159565    6.716102    8.201907    ( 0.0000,  0.0000,  0.0000)
  28 Ti     0.644391    6.695757    9.088516    ( 0.0000,  0.0000,  0.0000)
  29 Ti     6.068164    4.766611    9.120597    ( 0.0000,  0.0000,  0.0000)
  30 O      1.031476    4.770664    8.928149    ( 0.0000,  0.0000,  0.0000)
  31 O      6.356063    6.707872    8.936695    ( 0.0000,  0.0000,  0.0000)
  32 O      9.237723    6.752310    9.760711    ( 0.0000,  0.0000,  0.0000)
  33 O      7.843387    4.773964    8.359031    ( 0.0000,  0.0000,  0.0000)
  34 O      2.516227    6.663697    8.340747    ( 0.0000,  0.0000,  0.0000)
  35 O      1.065509    6.540119   11.057464    ( 0.0000,  0.0000,  0.0000)
  36 O      5.860058    4.741028   10.932332    ( 0.0000,  0.0000,  0.0000)
  37 Ti     4.429427    4.791352   12.242299    ( 0.0000,  0.0000,  0.0000)
  38 Ti     9.422879    6.656429   11.674985    ( 0.0000,  0.0000,  0.0000)
  39 Ti     2.030606    6.632737   12.674421    ( 0.0000,  0.0000,  0.0000)
  40 Ti     7.397018    4.755624   12.927243    ( 0.0000,  0.0000,  0.0000)
  41 O      2.547217    4.734111   12.932219    ( 0.0000,  0.0000,  0.0000)
  42 O      7.632662    6.664399   12.533717    ( 0.0000,  0.0000,  0.0000)
  43 O      0.351206    6.684617   13.443710    ( 0.0000,  0.0000,  0.0000)
  44 O      5.659199    4.786502   13.556382    ( 0.0000,  0.0000,  0.0000)
  45 O      9.088603    4.774356   11.795050    ( 0.0000,  0.0000,  0.0000)
  46 O      3.949057    6.589665   11.815805    ( 0.0000,  0.0000,  0.0000)
  47 O      9.948766   10.527875    7.408214    ( 0.0000,  0.0000,  0.0000)
  48 O      4.801079    8.598520    7.385338    ( 0.0000,  0.0000,  0.0000)
  49 Ti     2.928556    8.600038    8.224939    ( 0.0000,  0.0000,  0.0000)
  50 Ti     8.163046   10.570899    8.284136    ( 0.0000,  0.0000,  0.0000)
  51 Ti     0.692170   10.524457    9.134137    ( 0.0000,  0.0000,  0.0000)
  52 Ti     5.898248    8.628813    8.909431    ( 0.0000,  0.0000,  0.0000)
  53 O      1.092398    8.596554    8.983999    ( 0.0000,  0.0000,  0.0000)
  54 O      6.260853   10.527132    8.922339    ( 0.0000,  0.0000,  0.0000)
  55 O      9.226336   10.549273    9.823036    ( 0.0000,  0.0000,  0.0000)
  56 O      4.062725    8.522643    9.744956    ( 0.0000,  0.0000,  0.0000)
  57 O      7.763687    8.628435    8.276164    ( 0.0000,  0.0000,  0.0000)
  58 O      2.572933   10.493078    8.366415    ( 0.0000,  0.0000,  0.0000)
  59 O      1.071773   10.547171   11.055820    ( 0.0000,  0.0000,  0.0000)
  60 O      6.218448    8.667967   11.008982    ( 0.0000,  0.0000,  0.0000)
  61 Ti     4.251367    8.612619   11.636221    ( 0.0000,  0.0000,  0.0000)
  62 Ti     9.514494   10.571020   11.867259    ( 0.0000,  0.0000,  0.0000)
  63 Ti     2.077079   10.547450   12.762026    ( 0.0000,  0.0000,  0.0000)
  64 Ti     7.214574    8.629764   12.531326    ( 0.0000,  0.0000,  0.0000)
  65 O      2.503181    8.560615   12.428273    ( 0.0000,  0.0000,  0.0000)
  66 O      7.659026   10.525697   12.652723    ( 0.0000,  0.0000,  0.0000)
  67 O      0.380674   10.532321   13.445035    ( 0.0000,  0.0000,  0.0000)
  68 O      5.302281    8.607359   13.408348    ( 0.0000,  0.0000,  0.0000)
  69 O      9.018338    8.597436   11.821181    ( 0.0000,  0.0000,  0.0000)
  70 O      3.978083   10.508315   11.782899    ( 0.0000,  0.0000,  0.0000)
  71 O      9.929764   14.340311    7.430505    ( 0.0000,  0.0000,  0.0000)
  72 O      4.759268   12.419903    7.421972    ( 0.0000,  0.0000,  0.0000)
  73 Ti     2.973413   12.427060    8.313700    ( 0.0000,  0.0000,  0.0000)
  74 Ti     8.159057   14.365702    8.323752    ( 0.0000,  0.0000,  0.0000)
  75 Ti     0.656049   14.336438    8.970043    ( 0.0000,  0.0000,  0.0000)
  76 Ti     5.834925   12.456311    8.969397    ( 0.0000,  0.0000,  0.0000)
  77 O      1.080559   12.417619    8.947584    ( 0.0000,  0.0000,  0.0000)
  78 O      6.237742   14.348729    8.924053    ( 0.0000,  0.0000,  0.0000)
  79 O      9.220160   14.356076    9.859022    ( 0.0000,  0.0000,  0.0000)
  80 O      4.048950   12.465460    9.838585    ( 0.0000,  0.0000,  0.0000)
  81 O      7.746147   12.450358    8.354766    ( 0.0000,  0.0000,  0.0000)
  82 O      2.558641   14.335276    8.356645    ( 0.0000,  0.0000,  0.0000)
  83 O      1.098984   14.344350   10.981609    ( 0.0000,  0.0000,  0.0000)
  84 O      6.264428   12.468741   10.971257    ( 0.0000,  0.0000,  0.0000)
  85 Ti     4.386535   12.417366   11.899429    ( 0.0000,  0.0000,  0.0000)
  86 Ti     9.573825   14.364442   11.947626    ( 0.0000,  0.0000,  0.0000)
  87 Ti     2.038431   14.352881   12.494202    ( 0.0000,  0.0000,  0.0000)
  88 Ti     7.169281   12.464565   12.533558    ( 0.0000,  0.0000,  0.0000)
  89 O      2.562815   12.441885   12.707929    ( 0.0000,  0.0000,  0.0000)
  90 O      7.714616   14.347939   12.716469    ( 0.0000,  0.0000,  0.0000)
  91 O      0.427157   14.335215   13.388540    ( 0.0000,  0.0000,  0.0000)
  92 O      5.537528   12.390573   13.359621    ( 0.0000,  0.0000,  0.0000)
  93 O      9.162322   12.428948   11.915207    ( 0.0000,  0.0000,  0.0000)
  94 O      4.015860   14.346444   11.934985    ( 0.0000,  0.0000,  0.0000)
  95 V      3.987914    8.667857   14.682228    ( 0.0000,  0.0000,  0.0000)
  96 O      3.014450   10.100649   14.484474    ( 0.0000,  0.0000,  0.0000)
  97 O      2.998245    7.096203   14.516761    ( 0.0000,  0.0000,  0.0000)
  98 O      4.620525    8.671387   16.141435    ( 0.0000,  0.0000,  0.0000)
  99 V      9.253257    7.313683   14.724719    ( 0.0000,  0.0000,  0.0000)
 100 O      9.087939    5.574558   14.574330    ( 0.0000,  0.0000,  0.0000)
 101 O      8.046450    8.332404   14.553316    ( 0.0000,  0.0000,  0.0000)
 102 O      9.906053    7.407002   16.150349    ( 0.0000,  0.0000,  0.0000)
 103 H      7.997901    8.815259   15.318554    ( 0.0000,  0.0000,  0.0000)
 104 H      2.892519    7.229936   15.351532    ( 0.0000,  0.0000,  0.0000)

Unit cell:
           periodic     x           y           z      points  spacing
  1. axis:    yes   10.341746    0.000000    0.000000    54     0.1915
  2. axis:    yes   -0.000000   15.289380    0.000000    80     0.1911
  3. axis:    yes    0.000000    0.000000   23.497201   125     0.1880

  Lengths:  10.341746  15.289380  23.497201
  Angles:   90.000000  90.000000  90.000000

Effective grid spacing dv^(1/3) = 0.1902

                     log10-error:    total        iterations:
           time      wfs    density  energy       fermi  poisson
iter:   1  11:14:10  -2.66   +inf  -854.311757    4             
iter:   2  11:14:42  -3.61  -3.07  -854.298338    3             
iter:   3  11:15:14  -4.13  -3.17  -854.281255    3             
iter:   4  11:15:44  -3.66  -3.27  -854.265464    3             
iter:   5  11:16:15  -4.15  -3.45  -854.261337    3             
iter:   6  11:16:46  -4.40  -3.55  -854.257535    3             
iter:   7  11:17:18  -4.74  -3.70  -854.257765    3             
iter:   8  11:17:49  -5.11  -3.80  -854.257696    2             
iter:   9  11:18:20  -5.59  -3.92  -854.257161    2             
iter:  10  11:18:51  -5.54  -4.01  -854.257074    3             
iter:  11  11:19:22  -6.22  -4.18  -854.256833    2             
iter:  12  11:19:54  -6.62  -4.30  -854.257156    2             
iter:  13  11:20:25  -7.04  -4.40  -854.257139    2             
iter:  14  11:20:56  -6.63  -4.46  -854.257073    2             
iter:  15  11:21:28  -7.27  -4.58  -854.257069    2             
iter:  16  11:21:58  -7.05  -4.67  -854.257031    2             
iter:  17  11:22:29  -7.29  -4.92  -854.257024    2             
iter:  18  11:23:00  -7.52  -5.00  -854.257061    2             

Converged after 18 iterations.

Dipole moment: (-0.053049, 1.304729, -0.715971) |e|*Ang

Energy contributions relative to reference atoms: (reference = -935653.237240)

Kinetic:       +653.806988
Potential:     -809.981406
External:        +0.000000
XC:            -704.074286
Entropy (-ST):   -0.520159
Local:           +6.251723
--------------------------
Free energy:   -854.517141
Extrapolated:  -854.257061

Fermi level: -1.24906

Showing all kpts
 Kpt  Band  Eigenvalues  Occupancy
  0   411     -3.17052    1.00000
  0   412     -1.19397    0.36566
  0   413     -1.15228    0.27531
  0   414     -1.08940    0.16846

  1   411     -3.17092    1.00000
  1   412     -1.19102    0.35884
  1   413     -1.15785    0.28658
  1   414     -1.08391    0.16091



Forces in eV/Ang:
  0 O    -1.55352   -0.08897    1.23493
  1 O    -1.09664    0.01500    1.21151
  2 Ti    2.51977   -0.02600    1.12612
  3 Ti    2.37375    0.35863    0.52246
  4 Ti    0.19237    0.11715   -1.52553
  5 Ti   -1.71676    0.15459   -1.16773
  6 O     0.28965   -0.05430   -0.05365
  7 O     0.21024    0.17515   -0.28809
  8 O    -1.39738   -0.03666    0.27515
  9 O    -0.68846   -0.03083   -0.16865
 10 O     0.21691    0.44239   -1.05731
 11 O     0.35548   -0.18200   -1.00353
 12 O    -0.12915   -0.04332   -0.11442
 13 O    -0.02113    0.08659    0.08819
 14 Ti   -0.15330   -0.06998    0.03722
 15 Ti    0.89639    0.38933    1.02189
 16 Ti   -0.37905    0.14295    0.37776
 17 Ti   -0.33741    0.09791    0.00420
 18 O     0.01424   -0.02703    0.08355
 19 O    -0.06563    0.16974    0.24579
 20 O    -0.28607   -0.06809   -1.04119
 21 O     0.09274   -0.06818    0.01599
 22 O     0.08638    0.11863   -0.10179
 23 O     0.24261    0.00346   -0.08357
 24 O    -1.67018   -0.06001    2.14194
 25 O    -0.17717   -0.02915   -0.21444
 26 Ti   -0.18007    0.06195    0.70008
 27 Ti    3.24728    0.47122   -0.11929
 28 Ti    0.50213    0.02747   -2.49509
 29 Ti   -0.41676    0.12899    0.46123
 30 O     0.19837    0.01554   -0.07356
 31 O    -0.10150   -0.33356   -0.09976
 32 O    -1.64176    0.03718    0.86432
 33 O    -0.05829   -0.26140   -0.90152
 34 O     0.35548    0.11401   -1.08057
 35 O    -0.53534    0.08105   -0.07541
 36 O     0.23438   -0.00094    0.44914
 37 Ti   -0.06309   -0.09856   -0.34482
 38 Ti    1.38628   -0.40414    0.52349
 39 Ti   -0.42331   -0.21716   -0.61285
 40 Ti    0.99135    0.63188    0.30275
 41 O     0.07551    0.12474   -0.08606
 42 O    -0.15984    0.25355    0.01852
 43 O    -0.20616    2.12273   -0.87160
 44 O     0.34290    0.03800    0.34184
 45 O    -0.12907   -0.19580    0.01764
 46 O    -0.02510   -0.09545    0.34083
 47 O    -1.68602    0.03338    1.96624
 48 O    -1.08775   -0.02388    1.19330
 49 Ti    2.52721   -0.00256    1.03922
 50 Ti    3.66443   -0.22979    0.11887
 51 Ti   -0.83758    0.01941   -1.82817
 52 Ti   -1.31187    0.16907   -1.33264
 53 O     0.25313   -0.17669    0.04260
 54 O     0.01598    0.01814   -0.12810
 55 O    -1.04627   -0.07228    0.77783
 56 O    -0.89638   -0.00995   -0.06289
 57 O     0.19526   -0.08928   -0.82317
 58 O     0.28171    0.01338   -0.85110
 59 O    -0.45595   -0.06811    0.02937
 60 O     0.05689   -0.17440    0.32812
 61 Ti   -0.14659    0.20236    0.02102
 62 Ti    1.80079    0.12662    0.56931
 63 Ti   -0.75615   -0.10197    0.28539
 64 Ti   -0.89019    0.32350   -1.01224
 65 O     0.08701   -0.14911   -0.22763
 66 O     0.00811    0.13582    0.27471
 67 O    -0.72903   -0.23902   -0.86595
 68 O     0.17994   -0.03223    0.02809
 69 O     0.35626   -0.04009    0.43160
 70 O     0.23242   -0.00628    0.06226
 71 O    -1.20397    0.04948    1.29583
 72 O    -1.17003    0.07636    1.30572
 73 Ti    2.56631   -0.11040    0.97245
 74 Ti    2.86516   -0.97088    0.85409
 75 Ti   -0.88160   -0.23734   -1.28406
 76 Ti   -1.14658   -0.48051   -1.48621
 77 O     0.26065    0.21996   -0.05216
 78 O     0.23137    0.07120   -0.23777
 79 O    -0.74036    0.00721   -0.03101
 80 O    -0.72556   -0.02706   -0.15933
 81 O     0.03749    0.20918   -0.89548
 82 O     0.22825    0.25093   -0.97118
 83 O    -0.17572    0.06671    0.06523
 84 O     0.21322    0.02660    0.52230
 85 Ti   -0.19655   -0.09233   -0.01166
 86 Ti    0.61483   -0.53652    0.16347
 87 Ti    0.10772   -0.22274   -0.01864
 88 Ti   -0.43830   -0.25632   -0.89594
 89 O     0.04302    0.20338    0.05484
 90 O    -0.02532   -0.03311    0.27367
 91 O    -0.31979    0.08723   -0.37687
 92 O     0.27708    0.02359    0.10859
 93 O    -0.10210    0.13126    0.10575
 94 O     0.03560    0.27603   -0.00470
 95 V     0.72445    2.16164   -1.36165
 96 O     0.38918   -0.51645    0.01385
 97 O     1.58054   -0.91918   -8.38866
 98 O     0.01274   -0.19669    0.31288
 99 V     9.18722  -11.19754   -0.20335
100 O    -3.24381    0.45217    0.34444
101 O    -7.00670    3.93038   -3.93234
102 O     0.43053    1.11012    1.11199
103 H    -0.96499    3.08343    3.67960
104 H    -2.38149   -0.38811    9.78871

System changes: positions 

Initializing position-dependent things.

Density initialized from wave functions
          .------------------------.  
         /|                        |  
        / |                        |  
       /  |                        |  
      /   |                        |  
     /    |                        |  
    /     |                        |  
   /      |                        |  
  /       |                        |  
 *        |                        |  
 |        |                        |  
 |        |                        |  
 |        |                        |  
 |        O      O                 |  
 |        |   Oi      O   H OO     |  
 |      O | H  OV  O     OTi     Ti|  
 |        | Oi     Oi     O V O    |  
 |    O   |      O     OTiO   TiO  |  
 |        TiO     O         O      |  
 |        O     TiO  OTi O   Ti    |  
 |  O     |O  OTii    Ti   OTiO  O |  
 |     OTii  O OO    OO   O        |  
 |      OO| O     OTii    Tii      |  
 |   OTi  | Tii     O   OO     O   |  
 |    O   |O     OTi     Oi        |  
 |  Ti    TO   O  O    O     O     |  
 |  O    O|     Ti    Ti           |  
 |       Ti         O      O       |  
 |        |  O                     |  
 |        .------------------------.  
 |       /                        /   
 |      /                        /    
 |     /                        /     
 |    /                        /      
 |   /                        /       
 |  /                        /        
 | /                        /         
 |/                        /          
 *------------------------*           

Positions:
   0 O      9.976216    2.858233    7.393137    ( 0.0000,  0.0000,  0.0000)
   1 O      4.756852    0.969712    7.426553    ( 0.0000,  0.0000,  0.0000)
   2 Ti     2.977499    0.965811    8.324388    ( 0.0000,  0.0000,  0.0000)
   3 Ti     8.194414    2.799945    8.281978    ( 0.0000,  0.0000,  0.0000)
   4 Ti     0.620784    2.839791    8.988586    ( 0.0000,  0.0000,  0.0000)
   5 Ti     5.858715    0.936794    8.952141    ( 0.0000,  0.0000,  0.0000)
   6 O      1.070583    0.957871    8.944548    ( 0.0000,  0.0000,  0.0000)
   7 O      6.332133    2.843751    8.931186    ( 0.0000,  0.0000,  0.0000)
   8 O      9.252496    2.776042    9.819870    ( 0.0000,  0.0000,  0.0000)
   9 O      4.058145    0.977541    9.845844    ( 0.0000,  0.0000,  0.0000)
  10 O      7.755614    0.923678    8.321805    ( 0.0000,  0.0000,  0.0000)
  11 O      2.531474    2.891276    8.352118    ( 0.0000,  0.0000,  0.0000)
  12 O      1.084668    2.902312   10.997720    ( 0.0000,  0.0000,  0.0000)
  13 O      6.283761    0.926500   10.956849    ( 0.0000,  0.0000,  0.0000)
  14 Ti     4.395441    0.983106   11.920892    ( 0.0000,  0.0000,  0.0000)
  15 Ti     9.563170    2.823598   11.883550    ( 0.0000,  0.0000,  0.0000)
  16 Ti     2.011585    2.860228   12.523370    ( 0.0000,  0.0000,  0.0000)
  17 Ti     7.194062    0.938681   12.483503    ( 0.0000,  0.0000,  0.0000)
  18 O      2.560759    0.970624   12.709605    ( 0.0000,  0.0000,  0.0000)
  19 O      7.725133    2.854753   12.707075    ( 0.0000,  0.0000,  0.0000)
  20 O      0.377984    2.847411   13.395268    ( 0.0000,  0.0000,  0.0000)
  21 O      5.570493    1.038354   13.347740    ( 0.0000,  0.0000,  0.0000)
  22 O      9.168825    0.946636   11.927696    ( 0.0000,  0.0000,  0.0000)
  23 O      3.956244    2.917307   11.896821    ( 0.0000,  0.0000,  0.0000)
  24 O      9.990820    6.700489    7.347931    ( 0.0000,  0.0000,  0.0000)
  25 O      4.533567    4.787556    8.131791    ( 0.0000,  0.0000,  0.0000)
  26 Ti     2.734976    4.781982    7.960916    ( 0.0000,  0.0000,  0.0000)
  27 Ti     8.159565    6.716102    8.201907    ( 0.0000,  0.0000,  0.0000)
  28 Ti     0.644391    6.695757    9.088516    ( 0.0000,  0.0000,  0.0000)
  29 Ti     6.068164    4.766611    9.120597    ( 0.0000,  0.0000,  0.0000)
  30 O      1.031476    4.770664    8.928149    ( 0.0000,  0.0000,  0.0000)
  31 O      6.356063    6.707872    8.936695    ( 0.0000,  0.0000,  0.0000)
  32 O      9.237723    6.752310    9.760711    ( 0.0000,  0.0000,  0.0000)
  33 O      7.843387    4.773964    8.359031    ( 0.0000,  0.0000,  0.0000)
  34 O      2.516227    6.663697    8.340747    ( 0.0000,  0.0000,  0.0000)
  35 O      1.063682    6.540411   11.056872    ( 0.0000,  0.0000,  0.0000)
  36 O      5.861619    4.740909   10.934156    ( 0.0000,  0.0000,  0.0000)
  37 Ti     4.429059    4.791231   12.240831    ( 0.0000,  0.0000,  0.0000)
  38 Ti     9.428215    6.655102   11.676778    ( 0.0000,  0.0000,  0.0000)
  39 Ti     2.029074    6.631910   12.671909    ( 0.0000,  0.0000,  0.0000)
  40 Ti     7.399810    4.758143   12.926402    ( 0.0000,  0.0000,  0.0000)
  41 O      2.547547    4.734506   12.931739    ( 0.0000,  0.0000,  0.0000)
  42 O      7.631974    6.665089   12.533440    ( 0.0000,  0.0000,  0.0000)
  43 O      0.351756    6.692940   13.439850    ( 0.0000,  0.0000,  0.0000)
  44 O      5.660637    4.786589   13.557383    ( 0.0000,  0.0000,  0.0000)
  45 O      9.088130    4.773672   11.794780    ( 0.0000,  0.0000,  0.0000)
  46 O      3.949388    6.589327   11.816806    ( 0.0000,  0.0000,  0.0000)
  47 O      9.948766   10.527875    7.408214    ( 0.0000,  0.0000,  0.0000)
  48 O      4.801079    8.598520    7.385338    ( 0.0000,  0.0000,  0.0000)
  49 Ti     2.928556    8.600038    8.224939    ( 0.0000,  0.0000,  0.0000)
  50 Ti     8.163046   10.570899    8.284136    ( 0.0000,  0.0000,  0.0000)
  51 Ti     0.692170   10.524457    9.134137    ( 0.0000,  0.0000,  0.0000)
  52 Ti     5.898248    8.628813    8.909431    ( 0.0000,  0.0000,  0.0000)
  53 O      1.092398    8.596554    8.983999    ( 0.0000,  0.0000,  0.0000)
  54 O      6.260853   10.527132    8.922339    ( 0.0000,  0.0000,  0.0000)
  55 O      9.226336   10.549273    9.823036    ( 0.0000,  0.0000,  0.0000)
  56 O      4.062725    8.522643    9.744956    ( 0.0000,  0.0000,  0.0000)
  57 O      7.763687    8.628435    8.276164    ( 0.0000,  0.0000,  0.0000)
  58 O      2.572933   10.493078    8.366415    ( 0.0000,  0.0000,  0.0000)
  59 O      1.070155   10.547003   11.055589    ( 0.0000,  0.0000,  0.0000)
  60 O      6.218523    8.667312   11.009593    ( 0.0000,  0.0000,  0.0000)
  61 Ti     4.250599    8.613042   11.636214    ( 0.0000,  0.0000,  0.0000)
  62 Ti     9.520808   10.571688   11.868942    ( 0.0000,  0.0000,  0.0000)
  63 Ti     2.074052   10.547138   12.762354    ( 0.0000,  0.0000,  0.0000)
  64 Ti     7.211507    8.630917   12.527729    ( 0.0000,  0.0000,  0.0000)
  65 O      2.503468    8.560175   12.426937    ( 0.0000,  0.0000,  0.0000)
  66 O      7.659052   10.526441   12.652625    ( 0.0000,  0.0000,  0.0000)
  67 O      0.378009   10.531808   13.441221    ( 0.0000,  0.0000,  0.0000)
  68 O      5.303023    8.607362   13.408025    ( 0.0000,  0.0000,  0.0000)
  69 O      9.019773    8.597085   11.822614    ( 0.0000,  0.0000,  0.0000)
  70 O      3.979011   10.508302   11.782974    ( 0.0000,  0.0000,  0.0000)
  71 O      9.929764   14.340311    7.430505    ( 0.0000,  0.0000,  0.0000)
  72 O      4.759268   12.419903    7.421972    ( 0.0000,  0.0000,  0.0000)
  73 Ti     2.973413   12.427060    8.313700    ( 0.0000,  0.0000,  0.0000)
  74 Ti     8.159057   14.365702    8.323752    ( 0.0000,  0.0000,  0.0000)
  75 Ti     0.656049   14.336438    8.970043    ( 0.0000,  0.0000,  0.0000)
  76 Ti     5.834925   12.456311    8.969397    ( 0.0000,  0.0000,  0.0000)
  77 O      1.080559   12.417619    8.947584    ( 0.0000,  0.0000,  0.0000)
  78 O      6.237742   14.348729    8.924053    ( 0.0000,  0.0000,  0.0000)
  79 O      9.220160   14.356076    9.859022    ( 0.0000,  0.0000,  0.0000)
  80 O      4.048950   12.465460    9.838585    ( 0.0000,  0.0000,  0.0000)
  81 O      7.746147   12.450358    8.354766    ( 0.0000,  0.0000,  0.0000)
  82 O      2.558641   14.335276    8.356645    ( 0.0000,  0.0000,  0.0000)
  83 O      1.098426   14.344665   10.981609    ( 0.0000,  0.0000,  0.0000)
  84 O      6.265205   12.469042   10.973195    ( 0.0000,  0.0000,  0.0000)
  85 Ti     4.385868   12.416870   11.899283    ( 0.0000,  0.0000,  0.0000)
  86 Ti     9.576123   14.362566   11.947929    ( 0.0000,  0.0000,  0.0000)
  87 Ti     2.038917   14.352045   12.493882    ( 0.0000,  0.0000,  0.0000)
  88 Ti     7.167666   12.463639   12.530462    ( 0.0000,  0.0000,  0.0000)
  89 O      2.563003   12.442713   12.707866    ( 0.0000,  0.0000,  0.0000)
  90 O      7.714572   14.347965   12.717403    ( 0.0000,  0.0000,  0.0000)
  91 O      0.425999   14.335583   13.386903    ( 0.0000,  0.0000,  0.0000)
  92 O      5.538474   12.390569   13.360121    ( 0.0000,  0.0000,  0.0000)
  93 O      9.161922   12.429673   11.914890    ( 0.0000,  0.0000,  0.0000)
  94 O      4.016102   14.347537   11.934842    ( 0.0000,  0.0000,  0.0000)
  95 V      3.991303    8.675957   14.676799    ( 0.0000,  0.0000,  0.0000)
  96 O      3.015715   10.098728   14.484383    ( 0.0000,  0.0000,  0.0000)
  97 O      3.002408    7.096814   14.510861    ( 0.0000,  0.0000,  0.0000)
  98 O      4.620322    8.670629   16.142176    ( 0.0000,  0.0000,  0.0000)
  99 V      9.279551    7.284772   14.721077    ( 0.0000,  0.0000,  0.0000)
 100 O      9.086687    5.584148   14.575507    ( 0.0000,  0.0000,  0.0000)
 101 O      8.027114    8.343294   14.540422    ( 0.0000,  0.0000,  0.0000)
 102 O      9.908282    7.417138   16.155920    ( 0.0000,  0.0000,  0.0000)
 103 H      7.993683    8.824809   15.330656    ( 0.0000,  0.0000,  0.0000)
 104 H      2.886798    7.231512   15.363309    ( 0.0000,  0.0000,  0.0000)

Unit cell:
           periodic     x           y           z      points  spacing
  1. axis:    yes   10.341746    0.000000    0.000000    54     0.1915
  2. axis:    yes   -0.000000   15.289380    0.000000    80     0.1911
  3. axis:    yes    0.000000    0.000000   23.497201   125     0.1880

  Lengths:  10.341746  15.289380  23.497201
  Angles:   90.000000  90.000000  90.000000

Effective grid spacing dv^(1/3) = 0.1902

                     log10-error:    total        iterations:
           time      wfs    density  energy       fermi  poisson
iter:   1  11:26:38  -2.18   +inf  -855.434622    4             
iter:   2  11:27:10  -3.16  -2.98  -855.396479    3             
iter:   3  11:27:41  -2.98  -3.05  -855.324535    4             
iter:   4  11:28:12  -3.96  -3.23  -855.321226    2             
iter:   5  11:28:43  -4.26  -3.29  -855.312375    2             
iter:   6  11:29:14  -3.93  -3.37  -855.305935    3             
iter:   7  11:29:45  -4.36  -3.51  -855.307132    3             
iter:   8  11:30:17  -4.42  -3.56  -855.304954    3             
iter:   9  11:30:48  -5.11  -3.68  -855.304824    3             
iter:  10  11:31:20  -4.62  -3.79  -855.304406    3             
iter:  11  11:31:51  -5.53  -3.92  -855.304109    3             
iter:  12  11:32:23  -5.99  -4.07  -855.303843    3             
iter:  13  11:32:54  -6.58  -4.15  -855.304158    2             
iter:  14  11:33:25  -6.07  -4.21  -855.304238    3             
iter:  15  11:33:56  -5.82  -4.33  -855.304065    3             
iter:  16  11:34:27  -6.72  -4.51  -855.303937    2             
iter:  17  11:34:59  -6.72  -4.61  -855.303940    2             
iter:  18  11:35:30  -6.84  -4.66  -855.304038    2             
iter:  19  11:36:00  -7.31  -4.86  -855.304077    2             
iter:  20  11:36:31  -7.83  -4.99  -855.304015    1             

Converged after 20 iterations.

Dipole moment: (0.198312, 1.251552, -0.740527) |e|*Ang

Energy contributions relative to reference atoms: (reference = -935653.237240)

Kinetic:       +648.550601
Potential:     -806.484582
External:        +0.000000
XC:            -703.386480
Entropy (-ST):   -0.518800
Local:           +6.275847
--------------------------
Free energy:   -855.563415
Extrapolated:  -855.304015

Fermi level: -1.25413

Showing all kpts
 Kpt  Band  Eigenvalues  Occupancy
  0   411     -3.20818    1.00000
  0   412     -1.19911    0.36583
  0   413     -1.15817    0.27696
  0   414     -1.09365    0.16732

  1   411     -3.20863    1.00000
  1   412     -1.19629    0.35932
  1   413     -1.16336    0.28747
  1   414     -1.08890    0.16080



Forces in eV/Ang:
  0 O    -1.55180   -0.08852    1.23341
  1 O    -1.09657    0.01480    1.21182
  2 Ti    2.51785   -0.02375    1.12330
  3 Ti    2.38785    0.35629    0.53754
  4 Ti    0.17155    0.11151   -1.53759
  5 Ti   -1.71336    0.15626   -1.16460
  6 O     0.29176   -0.05582   -0.05301
  7 O     0.20615    0.18039   -0.28665
  8 O    -1.39507   -0.03025    0.26489
  9 O    -0.68976   -0.03112   -0.16757
 10 O     0.21431    0.44191   -1.05912
 11 O     0.35748   -0.18178   -1.00250
 12 O    -0.09774   -0.03612   -0.07211
 13 O    -0.03941    0.08695    0.06620
 14 Ti   -0.13027   -0.06196    0.03669
 15 Ti    0.77044    0.30108    0.92101
 16 Ti   -0.27718    0.11557    0.30288
 17 Ti   -0.26677    0.07929    0.01040
 18 O    -0.00364   -0.00872    0.08998
 19 O    -0.04693    0.17686    0.25003
 20 O    -0.28298   -0.05070   -0.91697
 21 O     0.06322   -0.06576    0.02036
 22 O     0.09138    0.12565   -0.09885
 23 O     0.20922    0.00964   -0.07468
 24 O    -1.66359   -0.05911    2.14408
 25 O    -0.16877   -0.02870   -0.21010
 26 Ti   -0.18145    0.05863    0.69454
 27 Ti    3.25444    0.47362   -0.10786
 28 Ti    0.47151    0.02885   -2.54749
 29 Ti   -0.40974    0.12680    0.47328
 30 O     0.19776    0.02185   -0.06660
 31 O    -0.10579   -0.33590   -0.09788
 32 O    -1.63368    0.03044    0.87393
 33 O    -0.06630   -0.26146   -0.90188
 34 O     0.35553    0.11578   -1.07550
 35 O    -0.50184    0.06783   -0.03933
 36 O     0.24127    0.00051    0.42586
 37 Ti    0.03250   -0.10760   -0.27452
 38 Ti    1.22828   -0.28421    0.43305
 39 Ti   -0.20443   -0.18320   -0.62922
 40 Ti    0.79945    0.60592    0.22018
 41 O     0.02790    0.12289   -0.07975
 42 O    -0.10889    0.16952   -0.01588
 43 O    -0.17583    2.03657   -0.82662
 44 O     0.33769    0.03348    0.28195
 45 O    -0.09654   -0.17176    0.04440
 46 O    -0.05762   -0.08971    0.32681
 47 O    -1.67782    0.03309    1.96568
 48 O    -1.08647   -0.02381    1.19531
 49 Ti    2.52739   -0.00373    1.03104
 50 Ti    3.67897   -0.23193    0.13502
 51 Ti   -0.86984    0.01940   -1.87005
 52 Ti   -1.30896    0.16856   -1.33580
 53 O     0.25374   -0.17667    0.04884
 54 O     0.01068    0.02023   -0.12348
 55 O    -1.03860   -0.06933    0.75284
 56 O    -0.89801   -0.01105   -0.05856
 57 O     0.19017   -0.08795   -0.82477
 58 O     0.28310    0.01554   -0.84845
 59 O    -0.40807   -0.06277    0.05730
 60 O    -0.01926   -0.17369    0.21649
 61 Ti   -0.12387    0.20339    0.00809
 62 Ti    1.62161    0.07554    0.56246
 63 Ti   -0.69320   -0.09439    0.25720
 64 Ti   -0.64885    0.34850   -0.70650
 65 O     0.05284   -0.13422   -0.22542
 66 O     0.01615    0.15299    0.20907
 67 O    -0.67274   -0.22312   -0.82086
 68 O     0.15862   -0.00843   -0.05786
 69 O     0.36659   -0.04544    0.38017
 70 O     0.21193   -0.00212    0.06627
 71 O    -1.20174    0.04904    1.29522
 72 O    -1.16550    0.07637    1.31016
 73 Ti    2.56043   -0.10896    0.96520
 74 Ti    2.87377   -0.96921    0.86159
 75 Ti   -0.89373   -0.23174   -1.29129
 76 Ti   -1.14340   -0.47902   -1.49098
 77 O     0.26305    0.21595   -0.04826
 78 O     0.22812    0.06514   -0.23512
 79 O    -0.73947    0.00554   -0.04820
 80 O    -0.71832   -0.02694   -0.14830
 81 O     0.03197    0.21058   -0.89479
 82 O     0.23008    0.24746   -0.97023
 83 O    -0.15448    0.05990    0.07006
 84 O     0.15469    0.02779    0.40789
 85 Ti   -0.16045   -0.08674    0.01734
 86 Ti    0.52185   -0.49534    0.15254
 87 Ti    0.10583   -0.19899   -0.02234
 88 Ti   -0.34836   -0.27026   -0.78724
 89 O     0.02508    0.16767    0.06127
 90 O    -0.01717   -0.02068    0.25931
 91 O    -0.27853    0.08149   -0.33844
 92 O     0.22153    0.02353    0.08536
 93 O    -0.07560    0.12529    0.09874
 94 O     0.02525    0.25532   -0.00568
 95 V     0.76973    1.83017   -1.03651
 96 O     0.28853   -0.35890   -0.02331
 97 O     1.39653   -0.58513   -6.51634
 98 O    -0.06636   -0.17344    0.13065
 99 V     6.44013   -8.25491   -0.33084
100 O    -3.13207   -0.07924    0.43778
101 O    -4.70350    2.65962   -2.55170
102 O     0.49969    0.94708    1.03762
103 H    -0.75954    2.19671    2.44271
104 H    -2.14129   -0.61347    7.86155

System changes: positions 

Initializing position-dependent things.

Density initialized from wave functions
          .------------------------.  
         /|                        |  
        / |                        |  
       /  |                        |  
      /   |                        |  
     /    |                        |  
    /     |                        |  
   /      |                        |  
  /       |                        |  
 *        |                        |  
 |        |                        |  
 |        |                        |  
 |        |                        |  
 |        O      O                 |  
 |        |   Oi      O   H OO     |  
 |      O | H  OV  O     OTi     Ti|  
 |        | Oi     Oi     O V O    |  
 |    O   |      O     OTiO   TiO  |  
 |        TiO     O         O      |  
 |        O     TiO  OTi O   Ti    |  
 |  O     |O  OTii    Ti   OTiO  O |  
 |     OTii  O OO    OO   O        |  
 |      OO| O     OTii    Tii      |  
 |   OTi  | Tii     O   OO     O   |  
 |    O   |O     OTi     Oi        |  
 |  Ti    TO   O  O    O     O     |  
 |  O    O|     Ti    Ti           |  
 |       Ti         O      O       |  
 |        |  O                     |  
 |        .------------------------.  
 |       /                        /   
 |      /                        /    
 |     /                        /     
 |    /                        /      
 |   /                        /       
 |  /                        /        
 | /                        /         
 |/                        /          
 *------------------------*           

Positions:
   0 O      9.976216    2.858233    7.393137    ( 0.0000,  0.0000,  0.0000)
   1 O      4.756852    0.969712    7.426553    ( 0.0000,  0.0000,  0.0000)
   2 Ti     2.977499    0.965811    8.324388    ( 0.0000,  0.0000,  0.0000)
   3 Ti     8.194414    2.799945    8.281978    ( 0.0000,  0.0000,  0.0000)
   4 Ti     0.620784    2.839791    8.988586    ( 0.0000,  0.0000,  0.0000)
   5 Ti     5.858715    0.936794    8.952141    ( 0.0000,  0.0000,  0.0000)
   6 O      1.070583    0.957871    8.944548    ( 0.0000,  0.0000,  0.0000)
   7 O      6.332133    2.843751    8.931186    ( 0.0000,  0.0000,  0.0000)
   8 O      9.252496    2.776042    9.819870    ( 0.0000,  0.0000,  0.0000)
   9 O      4.058145    0.977541    9.845844    ( 0.0000,  0.0000,  0.0000)
  10 O      7.755614    0.923678    8.321805    ( 0.0000,  0.0000,  0.0000)
  11 O      2.531474    2.891276    8.352118    ( 0.0000,  0.0000,  0.0000)
  12 O      1.084198    2.902204   10.997208    ( 0.0000,  0.0000,  0.0000)
  13 O      6.283475    0.926813   10.956799    ( 0.0000,  0.0000,  0.0000)
  14 Ti     4.394631    0.982921   11.920706    ( 0.0000,  0.0000,  0.0000)
  15 Ti     9.567389    2.824927   11.888337    ( 0.0000,  0.0000,  0.0000)
  16 Ti     2.010467    2.860826   12.524518    ( 0.0000,  0.0000,  0.0000)
  17 Ti     7.192697    0.939052   12.483350    ( 0.0000,  0.0000,  0.0000)
  18 O      2.560672    0.970805   12.709865    ( 0.0000,  0.0000,  0.0000)
  19 O      7.724832    2.856103   12.707961    ( 0.0000,  0.0000,  0.0000)
  20 O      0.376123    2.847159   13.389839    ( 0.0000,  0.0000,  0.0000)
  21 O      5.570646    1.038590   13.347654    ( 0.0000,  0.0000,  0.0000)
  22 O      9.169429    0.947607   11.926602    ( 0.0000,  0.0000,  0.0000)
  23 O      3.957196    2.917604   11.895355    ( 0.0000,  0.0000,  0.0000)
  24 O      9.990820    6.700489    7.347931    ( 0.0000,  0.0000,  0.0000)
  25 O      4.533567    4.787556    8.131791    ( 0.0000,  0.0000,  0.0000)
  26 Ti     2.734976    4.781982    7.960916    ( 0.0000,  0.0000,  0.0000)
  27 Ti     8.159565    6.716102    8.201907    ( 0.0000,  0.0000,  0.0000)
  28 Ti     0.644391    6.695757    9.088516    ( 0.0000,  0.0000,  0.0000)
  29 Ti     6.068164    4.766611    9.120597    ( 0.0000,  0.0000,  0.0000)
  30 O      1.031476    4.770664    8.928149    ( 0.0000,  0.0000,  0.0000)
  31 O      6.356063    6.707872    8.936695    ( 0.0000,  0.0000,  0.0000)
  32 O      9.237723    6.752310    9.760711    ( 0.0000,  0.0000,  0.0000)
  33 O      7.843387    4.773964    8.359031    ( 0.0000,  0.0000,  0.0000)
  34 O      2.516227    6.663697    8.340747    ( 0.0000,  0.0000,  0.0000)
  35 O      1.060940    6.540752   11.056445    ( 0.0000,  0.0000,  0.0000)
  36 O      5.864071    4.740771   10.936912    ( 0.0000,  0.0000,  0.0000)
  37 Ti     4.429583    4.790826   12.239223    ( 0.0000,  0.0000,  0.0000)
  38 Ti     9.435280    6.654168   11.678753    ( 0.0000,  0.0000,  0.0000)
  39 Ti     2.029115    6.630927   12.667552    ( 0.0000,  0.0000,  0.0000)
  40 Ti     7.402577    4.761976   12.924685    ( 0.0000,  0.0000,  0.0000)
  41 O      2.547539    4.735191   12.931075    ( 0.0000,  0.0000,  0.0000)
  42 O      7.631450    6.665388   12.532751    ( 0.0000,  0.0000,  0.0000)
  43 O      0.352455    6.705561   13.433877    ( 0.0000,  0.0000,  0.0000)
  44 O      5.662912    4.786705   13.558492    ( 0.0000,  0.0000,  0.0000)
  45 O      9.087713    4.772781   11.794771    ( 0.0000,  0.0000,  0.0000)
  46 O      3.949410    6.588817   11.818432    ( 0.0000,  0.0000,  0.0000)
  47 O      9.948766   10.527875    7.408214    ( 0.0000,  0.0000,  0.0000)
  48 O      4.801079    8.598520    7.385338    ( 0.0000,  0.0000,  0.0000)
  49 Ti     2.928556    8.600038    8.224939    ( 0.0000,  0.0000,  0.0000)
  50 Ti     8.163046   10.570899    8.284136    ( 0.0000,  0.0000,  0.0000)
  51 Ti     0.692170   10.524457    9.134137    ( 0.0000,  0.0000,  0.0000)
  52 Ti     5.898248    8.628813    8.909431    ( 0.0000,  0.0000,  0.0000)
  53 O      1.092398    8.596554    8.983999    ( 0.0000,  0.0000,  0.0000)
  54 O      6.260853   10.527132    8.922339    ( 0.0000,  0.0000,  0.0000)
  55 O      9.226336   10.549273    9.823036    ( 0.0000,  0.0000,  0.0000)
  56 O      4.062725    8.522643    9.744956    ( 0.0000,  0.0000,  0.0000)
  57 O      7.763687    8.628435    8.276164    ( 0.0000,  0.0000,  0.0000)
  58 O      2.572933   10.493078    8.366415    ( 0.0000,  0.0000,  0.0000)
  59 O      1.067950   10.546748   11.055632    ( 0.0000,  0.0000,  0.0000)
  60 O      6.217842    8.666217   11.009583    ( 0.0000,  0.0000,  0.0000)
  61 Ti     4.249659    8.613892   11.636084    ( 0.0000,  0.0000,  0.0000)
  62 Ti     9.529527   10.572173   11.871843    ( 0.0000,  0.0000,  0.0000)
  63 Ti     2.069764   10.546684   12.762872    ( 0.0000,  0.0000,  0.0000)
  64 Ti     7.208956    8.633163   12.525056    ( 0.0000,  0.0000,  0.0000)
  65 O      2.503566    8.559539   12.424911    ( 0.0000,  0.0000,  0.0000)
  66 O      7.659187   10.527800   12.652132    ( 0.0000,  0.0000,  0.0000)
  67 O      0.374148   10.530977   13.435544    ( 0.0000,  0.0000,  0.0000)
  68 O      5.304023    8.607580   13.406641    ( 0.0000,  0.0000,  0.0000)
  69 O      9.022269    8.596503   11.824521    ( 0.0000,  0.0000,  0.0000)
  70 O      3.980315   10.508319   11.783203    ( 0.0000,  0.0000,  0.0000)
  71 O      9.929764   14.340311    7.430505    ( 0.0000,  0.0000,  0.0000)
  72 O      4.759268   12.419903    7.421972    ( 0.0000,  0.0000,  0.0000)
  73 Ti     2.973413   12.427060    8.313700    ( 0.0000,  0.0000,  0.0000)
  74 Ti     8.159057   14.365702    8.323752    ( 0.0000,  0.0000,  0.0000)
  75 Ti     0.656049   14.336438    8.970043    ( 0.0000,  0.0000,  0.0000)
  76 Ti     5.834925   12.456311    8.969397    ( 0.0000,  0.0000,  0.0000)
  77 O      1.080559   12.417619    8.947584    ( 0.0000,  0.0000,  0.0000)
  78 O      6.237742   14.348729    8.924053    ( 0.0000,  0.0000,  0.0000)
  79 O      9.220160   14.356076    9.859022    ( 0.0000,  0.0000,  0.0000)
  80 O      4.048950   12.465460    9.838585    ( 0.0000,  0.0000,  0.0000)
  81 O      7.746147   12.450358    8.354766    ( 0.0000,  0.0000,  0.0000)
  82 O      2.558641   14.335276    8.356645    ( 0.0000,  0.0000,  0.0000)
  83 O      1.097697   14.345093   10.981752    ( 0.0000,  0.0000,  0.0000)
  84 O      6.265863   12.469489   10.975179    ( 0.0000,  0.0000,  0.0000)
  85 Ti     4.385131   12.416158   11.899403    ( 0.0000,  0.0000,  0.0000)
  86 Ti     9.578932   14.359841   11.948424    ( 0.0000,  0.0000,  0.0000)
  87 Ti     2.039679   14.350909   12.493398    ( 0.0000,  0.0000,  0.0000)
  88 Ti     7.165952   12.461918   12.526388    ( 0.0000,  0.0000,  0.0000)
  89 O      2.563108   12.443676   12.707927    ( 0.0000,  0.0000,  0.0000)
  90 O      7.714573   14.348090   12.718844    ( 0.0000,  0.0000,  0.0000)
  91 O      0.424511   14.336118   13.384671    ( 0.0000,  0.0000,  0.0000)
  92 O      5.539476   12.390594   13.360667    ( 0.0000,  0.0000,  0.0000)
  93 O      9.161553   12.430733   11.914539    ( 0.0000,  0.0000,  0.0000)
  94 O      4.016350   14.349114   11.934640    ( 0.0000,  0.0000,  0.0000)
  95 V      3.997398    8.685903   14.671437    ( 0.0000,  0.0000,  0.0000)
  96 O      3.016765   10.097264   14.483854    ( 0.0000,  0.0000,  0.0000)
  97 O      3.008115    7.099967   14.511398    ( 0.0000,  0.0000,  0.0000)
  98 O      4.619187    8.669629   16.141525    ( 0.0000,  0.0000,  0.0000)
  99 V      9.295659    7.265048   14.714726    ( 0.0000,  0.0000,  0.0000)
 100 O      9.082527    5.591564   14.578698    ( 0.0000,  0.0000,  0.0000)
 101 O      8.017945    8.348746   14.533591    ( 0.0000,  0.0000,  0.0000)
 102 O      9.912474    7.430253   16.164005    ( 0.0000,  0.0000,  0.0000)
 103 H      7.989086    8.831555   15.337698    ( 0.0000,  0.0000,  0.0000)
 104 H      2.878422    7.230673   15.371780    ( 0.0000,  0.0000,  0.0000)

Unit cell:
           periodic     x           y           z      points  spacing
  1. axis:    yes   10.341746    0.000000    0.000000    54     0.1915
  2. axis:    yes   -0.000000   15.289380    0.000000    80     0.1911
  3. axis:    yes    0.000000    0.000000   23.497201   125     0.1880

  Lengths:  10.341746  15.289380  23.497201
  Angles:   90.000000  90.000000  90.000000

Effective grid spacing dv^(1/3) = 0.1902

                     log10-error:    total        iterations:
           time      wfs    density  energy       fermi  poisson
iter:   1  11:40:06  -2.44   +inf  -855.960658    4             
iter:   2  11:40:37  -3.34  -3.01  -855.934518    3             
iter:   3  11:41:08  -3.79  -3.09  -855.918923    3             
iter:   4  11:41:40  -3.32  -3.16  -855.897583    3             
iter:   5  11:42:12  -4.42  -3.36  -855.896596    3             
iter:   6  11:42:43  -4.20  -3.42  -855.891831    3             
iter:   7  11:43:14  -4.42  -3.59  -855.892489    3             
iter:   8  11:43:45  -5.31  -3.66  -855.891941    3             
iter:   9  11:44:16  -4.93  -3.68  -855.892063    3             
iter:  10  11:44:48  -5.33  -3.79  -855.891729    3             
iter:  11  11:45:19  -5.09  -3.94  -855.891816    3             
iter:  12  11:45:50  -5.76  -4.05  -855.891310    3             
iter:  13  11:46:20  -6.40  -4.21  -855.891351    2             
iter:  14  11:46:52  -6.26  -4.32  -855.891433    2             
iter:  15  11:47:22  -6.70  -4.38  -855.891532    2             
iter:  16  11:47:53  -6.64  -4.50  -855.891437    2             
iter:  17  11:48:24  -7.53  -4.65  -855.891442    2             

Converged after 17 iterations.

Dipole moment: (0.436787, 1.200503, -0.775603) |e|*Ang

Energy contributions relative to reference atoms: (reference = -935653.237240)

Kinetic:       +646.344922
Potential:     -805.131339
External:        +0.000000
XC:            -703.130390
Entropy (-ST):   -0.518135
Local:           +6.284433
--------------------------
Free energy:   -856.150509
Extrapolated:  -855.891442

Fermi level: -1.26054

Showing all kpts
 Kpt  Band  Eigenvalues  Occupancy
  0   411     -3.21698    1.00000
  0   412     -1.20498    0.36458
  0   413     -1.16563    0.27907
  0   414     -1.09993    0.16714

  1   411     -3.21743    1.00000
  1   412     -1.20218    0.35812
  1   413     -1.17063    0.28925
  1   414     -1.09576    0.16141



Forces in eV/Ang:
  0 O    -1.54973   -0.08809    1.23191
  1 O    -1.09664    0.01442    1.21264
  2 Ti    2.51584   -0.02135    1.12117
  3 Ti    2.40922    0.35242    0.56050
  4 Ti    0.14251    0.10487   -1.54733
  5 Ti   -1.70937    0.15743   -1.15967
  6 O     0.29444   -0.05895   -0.05198
  7 O     0.19989    0.18974   -0.28449
  8 O    -1.39173   -0.02288    0.24756
  9 O    -0.69275   -0.03166   -0.16746
 10 O     0.21075    0.44118   -1.06147
 11 O     0.36067   -0.18105   -1.00138
 12 O    -0.05669   -0.02821   -0.02849
 13 O    -0.05736    0.08575    0.04709
 14 Ti   -0.09964   -0.05080    0.03730
 15 Ti    0.60666    0.21368    0.79498
 16 Ti   -0.16232    0.09326    0.21787
 17 Ti   -0.18553    0.06660    0.01341
 18 O    -0.02409    0.00894    0.09582
 19 O    -0.02711    0.17983    0.25177
 20 O    -0.26300   -0.03214   -0.75036
 21 O     0.02991   -0.06389    0.02079
 22 O     0.09200    0.12043   -0.09302
 23 O     0.16898    0.01794   -0.06240
 24 O    -1.65643   -0.05793    2.14705
 25 O    -0.15572   -0.02805   -0.20310
 26 Ti   -0.18518    0.05438    0.69296
 27 Ti    3.26439    0.47673   -0.09305
 28 Ti    0.43567    0.02769   -2.60493
 29 Ti   -0.39957    0.12353    0.49255
 30 O     0.19755    0.03013   -0.05927
 31 O    -0.11136   -0.34179   -0.09558
 32 O    -1.62383    0.02644    0.88110
 33 O    -0.07821   -0.26048   -0.90194
 34 O     0.35577    0.11777   -1.06936
 35 O    -0.44747    0.04804   -0.03062
 36 O     0.24484    0.00601    0.38369
 37 Ti    0.12863   -0.12444   -0.19279
 38 Ti    1.07369   -0.19252    0.36082
 39 Ti   -0.02183   -0.14357   -0.58228
 40 Ti    0.64741    0.55340    0.17550
 41 O    -0.01489    0.11389   -0.07540
 42 O    -0.05952    0.13419   -0.03465
 43 O    -0.16943    1.90517   -0.78540
 44 O     0.30983    0.03094    0.21594
 45 O    -0.05446   -0.13267    0.06503
 46 O    -0.08571   -0.07869    0.30500
 47 O    -1.66509    0.03285    1.96821
 48 O    -1.08615   -0.02359    1.19813
 49 Ti    2.52858   -0.00510    1.02065
 50 Ti    3.69492   -0.23399    0.15627
 51 Ti   -0.91195    0.01986   -1.93091
 52 Ti   -1.30410    0.16863   -1.34018
 53 O     0.25344   -0.17392    0.05892
 54 O     0.00482    0.02351   -0.11767
 55 O    -1.02839   -0.06768    0.73119
 56 O    -0.90228   -0.01209   -0.05085
 57 O     0.18506   -0.08793   -0.82594
 58 O     0.28342    0.01841   -0.84304
 59 O    -0.34429   -0.05542    0.08847
 60 O    -0.06152   -0.16797    0.14599
 61 Ti   -0.09788    0.20396   -0.02056
 62 Ti    1.40071    0.03858    0.50377
 63 Ti   -0.55930   -0.08883    0.22390
 64 Ti   -0.45838    0.35762   -0.52458
 65 O     0.02096   -0.10743   -0.21489
 66 O     0.02688    0.13754    0.16221
 67 O    -0.62256   -0.20396   -0.73135
 68 O     0.19085    0.01501   -0.14345
 69 O     0.35717   -0.03699    0.34594
 70 O     0.17954    0.00444    0.07276
 71 O    -1.19842    0.04818    1.29587
 72 O    -1.16056    0.07624    1.31662
 73 Ti    2.55549   -0.10678    0.95762
 74 Ti    2.88403   -0.96687    0.87168
 75 Ti   -0.90876   -0.22298   -1.29964
 76 Ti   -1.14156   -0.47705   -1.49947
 77 O     0.26468    0.20848   -0.04094
 78 O     0.22433    0.05754   -0.23172
 79 O    -0.73833    0.00240   -0.06847
 80 O    -0.71066   -0.02722   -0.13332
 81 O     0.02577    0.21172   -0.89315
 82 O     0.23190    0.24303   -0.96816
 83 O    -0.12528    0.04899    0.07256
 84 O     0.08632    0.02545    0.27605
 85 Ti   -0.12488   -0.07644    0.04372
 86 Ti    0.40576   -0.42953    0.13300
 87 Ti    0.10314   -0.16275   -0.02808
 88 Ti   -0.24644   -0.25011   -0.65930
 89 O     0.00071    0.11826    0.06715
 90 O    -0.00823   -0.01429    0.23764
 91 O    -0.22290    0.07191   -0.28436
 92 O     0.16263    0.02053    0.05664
 93 O    -0.04467    0.10151    0.09151
 94 O     0.01158    0.22174   -0.00710
 95 V     0.70514    1.44385   -0.76492
 96 O     0.17676   -0.17920   -0.07730
 97 O     1.35670   -0.38240   -5.71712
 98 O    -0.07494   -0.12732    0.05267
 99 V     5.30060   -6.45782    0.16584
100 O    -3.04638   -0.57519    0.44529
101 O    -3.60870    2.11361   -1.77860
102 O     0.34024    0.75579    0.49704
103 H    -0.65126    1.69903    1.74078
104 H    -2.05542   -0.69117    6.96572

System changes: positions 

Initializing position-dependent things.

Density initialized from wave functions
          .------------------------.  
         /|                        |  
        / |                        |  
       /  |                        |  
      /   |                        |  
     /    |                        |  
    /     |                        |  
   /      |                        |  
  /       |                        |  
 *        |                        |  
 |        |                        |  
 |        |                        |  
 |        |                        |  
 |        O      O                 |  
 |        |   Oi      O   H OO     |  
 |      O | H  OV  O     OTi     Ti|  
 |        | Oi     Oi     O V O    |  
 |    O   |      O     OTiO   TiO  |  
 |        TiO     O         O      |  
 |        O     TiO  OTi O   Ti    |  
 |  O     |O  OTii    Ti   OTiO  O |  
 |     OTii  O OO    OO   O        |  
 |      OO| O     OTii    Tii      |  
 |   OTi  | Tii     O   OO     O   |  
 |    O   |O     OTi     Oi        |  
 |  Ti    TO   O  O    O     O     |  
 |  O    O|     Ti    Ti           |  
 |       Ti         O      O       |  
 |        |  O                     |  
 |        .------------------------.  
 |       /                        /   
 |      /                        /    
 |     /                        /     
 |    /                        /      
 |   /                        /       
 |  /                        /        
 | /                        /         
 |/                        /          
 *------------------------*           

Positions:
   0 O      9.976216    2.858233    7.393137    ( 0.0000,  0.0000,  0.0000)
   1 O      4.756852    0.969712    7.426553    ( 0.0000,  0.0000,  0.0000)
   2 Ti     2.977499    0.965811    8.324388    ( 0.0000,  0.0000,  0.0000)
   3 Ti     8.194414    2.799945    8.281978    ( 0.0000,  0.0000,  0.0000)
   4 Ti     0.620784    2.839791    8.988586    ( 0.0000,  0.0000,  0.0000)
   5 Ti     5.858715    0.936794    8.952141    ( 0.0000,  0.0000,  0.0000)
   6 O      1.070583    0.957871    8.944548    ( 0.0000,  0.0000,  0.0000)
   7 O      6.332133    2.843751    8.931186    ( 0.0000,  0.0000,  0.0000)
   8 O      9.252496    2.776042    9.819870    ( 0.0000,  0.0000,  0.0000)
   9 O      4.058145    0.977541    9.845844    ( 0.0000,  0.0000,  0.0000)
  10 O      7.755614    0.923678    8.321805    ( 0.0000,  0.0000,  0.0000)
  11 O      2.531474    2.891276    8.352118    ( 0.0000,  0.0000,  0.0000)
  12 O      1.084060    2.902148   10.997074    ( 0.0000,  0.0000,  0.0000)
  13 O      6.283007    0.927163   10.956633    ( 0.0000,  0.0000,  0.0000)
  14 Ti     4.394046    0.982800   11.920562    ( 0.0000,  0.0000,  0.0000)
  15 Ti     9.570472    2.825620   11.892434    ( 0.0000,  0.0000,  0.0000)
  16 Ti     2.010253    2.861273   12.525058    ( 0.0000,  0.0000,  0.0000)
  17 Ti     7.191940    0.939359   12.483238    ( 0.0000,  0.0000,  0.0000)
  18 O      2.560398    0.971139   12.710227    ( 0.0000,  0.0000,  0.0000)
  19 O      7.724696    2.857552   12.709002    ( 0.0000,  0.0000,  0.0000)
  20 O      0.374326    2.847054   13.385498    ( 0.0000,  0.0000,  0.0000)
  21 O      5.570531    1.038794   13.347569    ( 0.0000,  0.0000,  0.0000)
  22 O      9.170078    0.948575   11.925532    ( 0.0000,  0.0000,  0.0000)
  23 O      3.957883    2.917988   11.894001    ( 0.0000,  0.0000,  0.0000)
  24 O      9.990820    6.700489    7.347931    ( 0.0000,  0.0000,  0.0000)
  25 O      4.533567    4.787556    8.131791    ( 0.0000,  0.0000,  0.0000)
  26 Ti     2.734976    4.781982    7.960916    ( 0.0000,  0.0000,  0.0000)
  27 Ti     8.159565    6.716102    8.201907    ( 0.0000,  0.0000,  0.0000)
  28 Ti     0.644391    6.695757    9.088516    ( 0.0000,  0.0000,  0.0000)
  29 Ti     6.068164    4.766611    9.120597    ( 0.0000,  0.0000,  0.0000)
  30 O      1.031476    4.770664    8.928149    ( 0.0000,  0.0000,  0.0000)
  31 O      6.356063    6.707872    8.936695    ( 0.0000,  0.0000,  0.0000)
  32 O      9.237723    6.752310    9.760711    ( 0.0000,  0.0000,  0.0000)
  33 O      7.843387    4.773964    8.359031    ( 0.0000,  0.0000,  0.0000)
  34 O      2.516227    6.663697    8.340747    ( 0.0000,  0.0000,  0.0000)
  35 O      1.058481    6.540937   11.056120    ( 0.0000,  0.0000,  0.0000)
  36 O      5.866653    4.740697   10.939499    ( 0.0000,  0.0000,  0.0000)
  37 Ti     4.431017    4.790166   12.238238    ( 0.0000,  0.0000,  0.0000)
  38 Ti     9.441545    6.653865   11.680272    ( 0.0000,  0.0000,  0.0000)
  39 Ti     2.030763    6.630250   12.663426    ( 0.0000,  0.0000,  0.0000)
  40 Ti     7.404395    4.765554   12.922708    ( 0.0000,  0.0000,  0.0000)
  41 O      2.547171    4.735891   12.930428    ( 0.0000,  0.0000,  0.0000)
  42 O      7.631334    6.665539   12.531966    ( 0.0000,  0.0000,  0.0000)
  43 O      0.353015    6.717822   13.427810    ( 0.0000,  0.0000,  0.0000)
  44 O      5.665042    4.786826   13.559154    ( 0.0000,  0.0000,  0.0000)
  45 O      9.087645    4.772175   11.794994    ( 0.0000,  0.0000,  0.0000)
  46 O      3.949123    6.588375   11.820054    ( 0.0000,  0.0000,  0.0000)
  47 O      9.948766   10.527875    7.408214    ( 0.0000,  0.0000,  0.0000)
  48 O      4.801079    8.598520    7.385338    ( 0.0000,  0.0000,  0.0000)
  49 Ti     2.928556    8.600038    8.224939    ( 0.0000,  0.0000,  0.0000)
  50 Ti     8.163046   10.570899    8.284136    ( 0.0000,  0.0000,  0.0000)
  51 Ti     0.692170   10.524457    9.134137    ( 0.0000,  0.0000,  0.0000)
  52 Ti     5.898248    8.628813    8.909431    ( 0.0000,  0.0000,  0.0000)
  53 O      1.092398    8.596554    8.983999    ( 0.0000,  0.0000,  0.0000)
  54 O      6.260853   10.527132    8.922339    ( 0.0000,  0.0000,  0.0000)
  55 O      9.226336   10.549273    9.823036    ( 0.0000,  0.0000,  0.0000)
  56 O      4.062725    8.522643    9.744956    ( 0.0000,  0.0000,  0.0000)
  57 O      7.763687    8.628435    8.276164    ( 0.0000,  0.0000,  0.0000)
  58 O      2.572933   10.493078    8.366415    ( 0.0000,  0.0000,  0.0000)
  59 O      1.066122   10.546525   11.056000    ( 0.0000,  0.0000,  0.0000)
  60 O      6.216819    8.665086   11.009135    ( 0.0000,  0.0000,  0.0000)
[...]
  75 Ti     0.656049   14.336438    8.970043    ( 0.0000,  0.0000,  0.0000)
  76 Ti     5.834925   12.456311    8.969397    ( 0.0000,  0.0000,  0.0000)
  77 O      1.080559   12.417619    8.947584    ( 0.0000,  0.0000,  0.0000)
  78 O      6.237742   14.348729    8.924053    ( 0.0000,  0.0000,  0.0000)
  79 O      9.220160   14.356076    9.859022    ( 0.0000,  0.0000,  0.0000)
  80 O      4.048950   12.465460    9.838585    ( 0.0000,  0.0000,  0.0000)
  81 O      7.746147   12.450358    8.354766    ( 0.0000,  0.0000,  0.0000)
  82 O      2.558641   14.335276    8.356645    ( 0.0000,  0.0000,  0.0000)
  83 O      1.085899   14.343150   11.016540    ( 0.0000,  0.0000,  0.0000)
  84 O      6.255343   12.477453   10.969653    ( 0.0000,  0.0000,  0.0000)
  85 Ti     4.385914   12.431820   11.932182    ( 0.0000,  0.0000,  0.0000)
  86 Ti     9.592954   14.328600   11.990944    ( 0.0000,  0.0000,  0.0000)
  87 Ti     2.040261   14.339207   12.521945    ( 0.0000,  0.0000,  0.0000)
  88 Ti     7.182256   12.433859   12.483900    ( 0.0000,  0.0000,  0.0000)
  89 O      2.552154   12.438434   12.747587    ( 0.0000,  0.0000,  0.0000)
  90 O      7.710718   14.340799   12.739358    ( 0.0000,  0.0000,  0.0000)
  91 O      0.424484   14.343473   13.412451    ( 0.0000,  0.0000,  0.0000)
  92 O      5.557359   12.403025   13.355185    ( 0.0000,  0.0000,  0.0000)
  93 O      9.189477   12.418330   12.009887    ( 0.0000,  0.0000,  0.0000)
  94 O      4.011955   14.359174   11.967037    ( 0.0000,  0.0000,  0.0000)
  95 V      3.982061    8.708664   14.720774    ( 0.0000,  0.0000,  0.0000)
  96 O      3.037377   10.137840   14.472274    ( 0.0000,  0.0000,  0.0000)
  97 O      2.894187    7.152607   14.607808    ( 0.0000,  0.0000,  0.0000)
  98 O      4.675574    8.778370   16.147945    ( 0.0000,  0.0000,  0.0000)
  99 V      9.613640    7.568862   14.995555    ( 0.0000,  0.0000,  0.0000)
 100 O      9.386479    6.177273   15.762767    ( 0.0000,  0.0000,  0.0000)
 101 O      7.906392    8.409570   14.573924    ( 0.0000,  0.0000,  0.0000)
 102 O     10.363242    8.570855   16.001587    ( 0.0000,  0.0000,  0.0000)
 103 H      7.590444    9.025856   15.261274    ( 0.0000,  0.0000,  0.0000)
 104 H      2.509730    6.776184   15.421454    ( 0.0000,  0.0000,  0.0000)

Unit cell:
           periodic     x           y           z      points  spacing
  1. axis:    yes   10.341746    0.000000    0.000000    54     0.1915
  2. axis:    yes   -0.000000   15.289380    0.000000    80     0.1911
  3. axis:    yes    0.000000    0.000000   23.497201   125     0.1880

  Lengths:  10.341746  15.289380  23.497201
  Angles:   90.000000  90.000000  90.000000

Effective grid spacing dv^(1/3) = 0.1902

                     log10-error:    total        iterations:
           time      wfs    density  energy       fermi  poisson
iter:   1  16:47:28  -4.55   +inf  -858.770055    3             
iter:   2  16:47:59  -5.38  -4.16  -858.771188    3             
iter:   3  16:48:30  -5.96  -4.24  -858.770749    2             
iter:   4  16:49:01  -6.01  -4.33  -858.770677    2             
iter:   5  16:49:32  -6.29  -4.49  -858.770693    2             
iter:   6  16:50:03  -6.65  -4.59  -858.770708    2             
iter:   7  16:50:34  -6.83  -4.73  -858.770739    2             
iter:   8  16:51:06  -7.33  -4.93  -858.770717    2             
iter:   9  16:51:36  -7.60  -5.03  -858.770689    2             

Converged after 9 iterations.

Dipole moment: (-7.309212, 0.277502, -1.207394) |e|*Ang

Energy contributions relative to reference atoms: (reference = -935653.237240)

Kinetic:       +626.112190
Potential:     -791.406936
External:        +0.000000
XC:            -699.528499
Entropy (-ST):   -0.540241
Local:           +6.322676
--------------------------
Free energy:   -859.040810
Extrapolated:  -858.770689

Fermi level: -1.33177

Showing all kpts
 Kpt  Band  Eigenvalues  Occupancy
  0   411     -2.96456    1.00000
  0   412     -1.26119    0.33054
  0   413     -1.23482    0.27499
  0   414     -1.18125    0.18165

  1   411     -2.96463    1.00000
  1   412     -1.25515    0.31731
  1   413     -1.24130    0.28810
  1   414     -1.18160    0.18218



Forces in eV/Ang:
  0 O    -1.52483   -0.08582    1.24773
  1 O    -1.03416    0.03209    1.23685
  2 Ti    2.49205   -0.02951    1.12538
  3 Ti    2.76638    0.18899    0.68979
  4 Ti   -0.07195    0.11117   -1.41237
  5 Ti   -1.78232   -0.04490   -1.15029
  6 O     0.29681   -0.08647   -0.00952
  7 O     0.02068    0.58410   -0.08119
  8 O    -1.35856    0.02751    0.23091
  9 O    -0.71093   -0.03658   -0.09135
 10 O     0.16288    0.50473   -1.06147
 11 O     0.38574   -0.17506   -0.97942
 12 O    -0.01516   -0.00029   -0.01641
 13 O     0.01573    0.00342   -0.01739
 14 Ti   -0.02127    0.01024    0.00029
 15 Ti    0.00652    0.00238    0.00520
 16 Ti   -0.01983    0.01195    0.01942
 17 Ti   -0.00873    0.02945   -0.00865
 18 O     0.01061    0.01536    0.01582
 19 O    -0.01041   -0.06008   -0.02494
 20 O     0.02413   -0.00950   -0.00143
 21 O    -0.03102    0.00301    0.00710
 22 O     0.03274    0.05193   -0.01714
 23 O    -0.01369    0.00557   -0.01353
 24 O    -1.59766   -0.06807    2.11309
 25 O     0.42000   -0.03712    0.03987
 26 Ti   -0.47695    0.05497    0.68831
 27 Ti    3.77900    0.68730    0.30574
 28 Ti   -0.25275   -0.01585   -2.59445
 29 Ti   -0.17817    0.17982   -0.10715
 30 O     0.20627    0.00867   -0.00488
 31 O    -0.29550   -0.70163    0.03227
 32 O    -1.46612   -0.01502    1.02873
 33 O    -0.49412   -0.29632   -0.83681
 34 O     0.41596    0.12035   -1.04790
 35 O     0.03261   -0.00153    0.00875
 36 O     0.00993    0.00473    0.04876
 37 Ti   -0.02070   -0.00690    0.00648
 38 Ti    0.02876    0.02590    0.04283
 39 Ti   -0.02407    0.02910   -0.01495
 40 Ti   -0.06132    0.02011   -0.10694
 41 O     0.00158   -0.01098    0.00336
 42 O     0.00665   -0.00268    0.04815
 43 O     0.00599    0.02744   -0.00248
 44 O     0.03334    0.02497    0.00832
 45 O     0.01411    0.01147    0.01423
 46 O    -0.00113    0.00475   -0.02093
 47 O    -1.54615    0.03460    1.99205
 48 O    -0.98029   -0.04102    1.23634
 49 Ti    2.54373   -0.00878    1.01686
 50 Ti    3.84003   -0.24079    0.33131
 51 Ti   -1.19480    0.03682   -2.13869
 52 Ti   -1.36925    0.25602   -1.20430
 53 O     0.25975   -0.11486    0.15641
 54 O    -0.04039   -0.08666   -0.02136
 55 O    -0.96081   -0.04204    0.59492
 56 O    -0.89319    0.00995    0.06251
 57 O     0.11266   -0.12891   -0.84026
 58 O     0.26575    0.01183   -0.80441
 59 O    -0.03167    0.00255    0.03758
 60 O    -0.01878   -0.01379   -0.01157
 61 Ti   -0.00397    0.01773   -0.01913
 62 Ti    0.03538   -0.00770   -0.01879
 63 Ti   -0.03103    0.02243   -0.00535
 64 Ti   -0.00376    0.02333    0.01927
 65 O    -0.03443   -0.03364    0.02233
 66 O    -0.00893   -0.00298    0.00495
 67 O     0.02276    0.06632   -0.06451
 68 O     0.02195   -0.00332   -0.03828
 69 O     0.03239    0.00896   -0.01284
 70 O     0.01533    0.05704   -0.03767
 71 O    -1.11876    0.04755    1.33277
 72 O    -1.15380    0.07421    1.32072
 73 Ti    2.62037   -0.09428    0.96895
 74 Ti    2.93715   -0.99437    0.94218
 75 Ti   -1.03952   -0.18776   -1.22409
 76 Ti   -1.21528   -0.45659   -1.58483
 77 O     0.24310    0.18160    0.02551
 78 O     0.20752    0.11952   -0.21218
 79 O    -0.71976   -0.03028    0.01957
 80 O    -0.75224   -0.02546   -0.00684
 81 O     0.00925    0.21647   -0.89244
 82 O     0.21802    0.24576   -0.93526
 83 O    -0.00062   -0.00182    0.03009
 84 O    -0.01013    0.00164   -0.03267
 85 Ti   -0.01280   -0.00238   -0.02717
 86 Ti    0.02266   -0.01611    0.03243
 87 Ti    0.01104    0.01005    0.00431
 88 Ti    0.00677    0.02686    0.00525
 89 O    -0.01142   -0.00045   -0.00333
 90 O     0.02372   -0.02449   -0.01188
 91 O    -0.02095    0.00630   -0.06758
 92 O     0.00078   -0.01527    0.03588
 93 O    -0.01326    0.04706    0.02380
 94 O    -0.01621    0.06719    0.01103
 95 V     0.05663    0.01403    0.05425
 96 O    -0.02319    0.00550   -0.00275
 97 O    -0.03799    0.04429    0.02354
 98 O    -0.03302    0.01642   -0.01470
 99 V    -0.07252   -0.20691   -0.12183
100 O    -0.19855   -0.17351    0.24050
101 O    -0.08113    0.02947    0.02016
102 O     0.29371   -0.07512   -0.08204
103 H    -0.02952    0.04976   -0.04364
104 H     0.07582   -0.09668    0.08684

System changes: positions 

Initializing position-dependent things.

Density initialized from wave functions
          .------------------------.  
         /|                        |  
        / |                        |  
       /  |                        |  
      /   |                        |  
     /    |                        |  
    /     |                        |  
   /      |                        |  
  /       |                        |  
 *        |                        |  
 |        |                        |  
 |        |                        |  
 |        |                        |  
 |    O   O      O                 |  
 |        |   Oi      O  H  O      |  
 |      O |H  O V  O     OTO V   Ti|  
 |        | Oi     Oi     O    O   |  
 |    O   |      O     OTi    TiO  |  
 |        TiO     O         O      |  
 |        O     OTi  O O O  Tii    |  
 |  O  O  |O  TiTi   Tii   O  O  O |  
 |      Tii  O OO    OO   O        |  
 |      OO| O     OTii    Tii      |  
 |   OTi  | Tii     O   OO     O   |  
 |    O   |O     OTi     Oi        |  
 |  Ti    TO   O  O    O     O     |  
 |  O    O|     Ti    Ti           |  
 |       Ti         O      O       |  
 |        |  O                     |  
 |        .------------------------.  
 |       /                        /   
 |      /                        /    
 |     /                        /     
 |    /                        /      
 |   /                        /       
 |  /                        /        
 | /                        /         
 |/                        /          
 *------------------------*           

Positions:
   0 O      9.976216    2.858233    7.393137    ( 0.0000,  0.0000,  0.0000)
   1 O      4.756852    0.969712    7.426553    ( 0.0000,  0.0000,  0.0000)
   2 Ti     2.977499    0.965811    8.324388    ( 0.0000,  0.0000,  0.0000)
   3 Ti     8.194414    2.799945    8.281978    ( 0.0000,  0.0000,  0.0000)
   4 Ti     0.620784    2.839791    8.988586    ( 0.0000,  0.0000,  0.0000)
   5 Ti     5.858715    0.936794    8.952141    ( 0.0000,  0.0000,  0.0000)
   6 O      1.070583    0.957871    8.944548    ( 0.0000,  0.0000,  0.0000)
   7 O      6.332133    2.843751    8.931186    ( 0.0000,  0.0000,  0.0000)
   8 O      9.252496    2.776042    9.819870    ( 0.0000,  0.0000,  0.0000)
   9 O      4.058145    0.977541    9.845844    ( 0.0000,  0.0000,  0.0000)
  10 O      7.755614    0.923678    8.321805    ( 0.0000,  0.0000,  0.0000)
  11 O      2.531474    2.891276    8.352118    ( 0.0000,  0.0000,  0.0000)
  12 O      1.089374    2.889752   11.030650    ( 0.0000,  0.0000,  0.0000)
  13 O      6.266910    0.936982   10.965864    ( 0.0000,  0.0000,  0.0000)
  14 Ti     4.397982    0.970000   11.940400    ( 0.0000,  0.0000,  0.0000)
  15 Ti     9.588822    2.838629   11.967589    ( 0.0000,  0.0000,  0.0000)
  16 Ti     2.016956    2.854671   12.551543    ( 0.0000,  0.0000,  0.0000)
  17 Ti     7.199550    0.937639   12.481625    ( 0.0000,  0.0000,  0.0000)
  18 O      2.565538    0.982406   12.753663    ( 0.0000,  0.0000,  0.0000)
  19 O      7.699075    2.883185   12.645635    ( 0.0000,  0.0000,  0.0000)
  20 O      0.367604    2.855741   13.404701    ( 0.0000,  0.0000,  0.0000)
  21 O      5.573028    1.021448   13.355967    ( 0.0000,  0.0000,  0.0000)
  22 O      9.181755    0.949134   12.000022    ( 0.0000,  0.0000,  0.0000)
  23 O      3.965680    2.944658   11.885981    ( 0.0000,  0.0000,  0.0000)
  24 O      9.990820    6.700489    7.347931    ( 0.0000,  0.0000,  0.0000)
  25 O      4.533567    4.787556    8.131791    ( 0.0000,  0.0000,  0.0000)
  26 Ti     2.734976    4.781982    7.960916    ( 0.0000,  0.0000,  0.0000)
  27 Ti     8.159565    6.716102    8.201907    ( 0.0000,  0.0000,  0.0000)
  28 Ti     0.644391    6.695757    9.088516    ( 0.0000,  0.0000,  0.0000)
  29 Ti     6.068164    4.766611    9.120597    ( 0.0000,  0.0000,  0.0000)
  30 O      1.031476    4.770664    8.928149    ( 0.0000,  0.0000,  0.0000)
  31 O      6.356063    6.707872    8.936695    ( 0.0000,  0.0000,  0.0000)
  32 O      9.237723    6.752310    9.760711    ( 0.0000,  0.0000,  0.0000)
  33 O      7.843387    4.773964    8.359031    ( 0.0000,  0.0000,  0.0000)
  34 O      2.516227    6.663697    8.340747    ( 0.0000,  0.0000,  0.0000)
  35 O      1.032107    6.523995   11.085938    ( 0.0000,  0.0000,  0.0000)
  36 O      5.989904    4.761305   11.023634    ( 0.0000,  0.0000,  0.0000)
  37 Ti     4.363910    4.769832   12.338212    ( 0.0000,  0.0000,  0.0000)
  38 Ti     9.507913    6.690283   11.799821    ( 0.0000,  0.0000,  0.0000)
  39 Ti     2.064474    6.682995   12.635630    ( 0.0000,  0.0000,  0.0000)
  40 Ti     7.218779    4.762229   12.469284    ( 0.0000,  0.0000,  0.0000)
  41 O      2.515797    4.745892   12.997948    ( 0.0000,  0.0000,  0.0000)
  42 O      7.678339    6.638524   12.579961    ( 0.0000,  0.0000,  0.0000)
  43 O      0.247733    6.938947   13.411856    ( 0.0000,  0.0000,  0.0000)
  44 O      5.688609    4.777846   13.554220    ( 0.0000,  0.0000,  0.0000)
  45 O      9.144810    4.774858   11.859228    ( 0.0000,  0.0000,  0.0000)
  46 O      3.896543    6.554513   11.855929    ( 0.0000,  0.0000,  0.0000)
  47 O      9.948766   10.527875    7.408214    ( 0.0000,  0.0000,  0.0000)
  48 O      4.801079    8.598520    7.385338    ( 0.0000,  0.0000,  0.0000)
  49 Ti     2.928556    8.600038    8.224939    ( 0.0000,  0.0000,  0.0000)
  50 Ti     8.163046   10.570899    8.284136    ( 0.0000,  0.0000,  0.0000)
  51 Ti     0.692170   10.524457    9.134137    ( 0.0000,  0.0000,  0.0000)
  52 Ti     5.898248    8.628813    8.909431    ( 0.0000,  0.0000,  0.0000)
  53 O      1.092398    8.596554    8.983999    ( 0.0000,  0.0000,  0.0000)
  54 O      6.260853   10.527132    8.922339    ( 0.0000,  0.0000,  0.0000)
  55 O      9.226336   10.549273    9.823036    ( 0.0000,  0.0000,  0.0000)
  56 O      4.062725    8.522643    9.744956    ( 0.0000,  0.0000,  0.0000)
  57 O      7.763687    8.628435    8.276164    ( 0.0000,  0.0000,  0.0000)
  58 O      2.572933   10.493078    8.366415    ( 0.0000,  0.0000,  0.0000)
  59 O      1.053797   10.558360   11.082837    ( 0.0000,  0.0000,  0.0000)
  60 O      6.196419    8.595074   11.065343    ( 0.0000,  0.0000,  0.0000)
  61 Ti     4.297957    8.681918   11.640047    ( 0.0000,  0.0000,  0.0000)
  62 Ti     9.620177   10.537949   11.906454    ( 0.0000,  0.0000,  0.0000)
  63 Ti     2.055533   10.522229   12.829180    ( 0.0000,  0.0000,  0.0000)
  64 Ti     7.238951    8.654911   12.607873    ( 0.0000,  0.0000,  0.0000)
  65 O      2.506103    8.564886   12.411913    ( 0.0000,  0.0000,  0.0000)
  66 O      7.642714   10.529311   12.653204    ( 0.0000,  0.0000,  0.0000)
  67 O      0.332024   10.392042   13.431586    ( 0.0000,  0.0000,  0.0000)
  68 O      5.266704    8.606866   13.431414    ( 0.0000,  0.0000,  0.0000)
  69 O      9.036782    8.610542   11.858776    ( 0.0000,  0.0000,  0.0000)
  70 O      3.998369   10.514592   11.813246    ( 0.0000,  0.0000,  0.0000)
  71 O      9.929764   14.340311    7.430505    ( 0.0000,  0.0000,  0.0000)
  72 O      4.759268   12.419903    7.421972    ( 0.0000,  0.0000,  0.0000)
  73 Ti     2.973413   12.427060    8.313700    ( 0.0000,  0.0000,  0.0000)
  74 Ti     8.159057   14.365702    8.323752    ( 0.0000,  0.0000,  0.0000)
  75 Ti     0.656049   14.336438    8.970043    ( 0.0000,  0.0000,  0.0000)
  76 Ti     5.834925   12.456311    8.969397    ( 0.0000,  0.0000,  0.0000)
  77 O      1.080559   12.417619    8.947584    ( 0.0000,  0.0000,  0.0000)
  78 O      6.237742   14.348729    8.924053    ( 0.0000,  0.0000,  0.0000)
  79 O      9.220160   14.356076    9.859022    ( 0.0000,  0.0000,  0.0000)
  80 O      4.048950   12.465460    9.838585    ( 0.0000,  0.0000,  0.0000)
  81 O      7.746147   12.450358    8.354766    ( 0.0000,  0.0000,  0.0000)
  82 O      2.558641   14.335276    8.356645    ( 0.0000,  0.0000,  0.0000)
  83 O      1.085894   14.343349   11.016858    ( 0.0000,  0.0000,  0.0000)
  84 O      6.255287   12.478680   10.969420    ( 0.0000,  0.0000,  0.0000)
  85 Ti     4.385969   12.432412   11.932162    ( 0.0000,  0.0000,  0.0000)
  86 Ti     9.592949   14.328945   11.991129    ( 0.0000,  0.0000,  0.0000)
  87 Ti     2.040332   14.339399   12.522275    ( 0.0000,  0.0000,  0.0000)
  88 Ti     7.182129   12.434005   12.483603    ( 0.0000,  0.0000,  0.0000)
  89 O      2.552425   12.438704   12.747896    ( 0.0000,  0.0000,  0.0000)
  90 O      7.710488   14.340949   12.739372    ( 0.0000,  0.0000,  0.0000)
  91 O      0.424564   14.343803   13.412734    ( 0.0000,  0.0000,  0.0000)
  92 O      5.557394   12.402942   13.355077    ( 0.0000,  0.0000,  0.0000)
  93 O      9.189418   12.418560   12.010000    ( 0.0000,  0.0000,  0.0000)
  94 O      4.012206   14.359446   11.967459    ( 0.0000,  0.0000,  0.0000)
  95 V      3.983025    8.709203   14.720294    ( 0.0000,  0.0000,  0.0000)
  96 O      3.038314   10.138540   14.472297    ( 0.0000,  0.0000,  0.0000)
  97 O      2.896572    7.151954   14.608535    ( 0.0000,  0.0000,  0.0000)
  98 O      4.680035    8.779420   16.145794    ( 0.0000,  0.0000,  0.0000)
  99 V      9.613889    7.568214   14.998200    ( 0.0000,  0.0000,  0.0000)
 100 O      9.386093    6.176739   15.765827    ( 0.0000,  0.0000,  0.0000)
 101 O      7.906644    8.409182   14.574404    ( 0.0000,  0.0000,  0.0000)
 102 O     10.363811    8.571362   16.002872    ( 0.0000,  0.0000,  0.0000)
 103 H      7.590384    9.025759   15.261417    ( 0.0000,  0.0000,  0.0000)
 104 H      2.511648    6.775201   15.421827    ( 0.0000,  0.0000,  0.0000)

Unit cell:
           periodic     x           y           z      points  spacing
  1. axis:    yes   10.341746    0.000000    0.000000    54     0.1915
  2. axis:    yes   -0.000000   15.289380    0.000000    80     0.1911
  3. axis:    yes    0.000000    0.000000   23.497201   125     0.1880

  Lengths:  10.341746  15.289380  23.497201
  Angles:   90.000000  90.000000  90.000000

Effective grid spacing dv^(1/3) = 0.1902

                     log10-error:    total        iterations:
           time      wfs    density  energy       fermi  poisson
iter:   1  16:55:08  -4.46   +inf  -858.771064    3             
iter:   2  16:55:39  -5.33  -4.14  -858.771678    3             
iter:   3  16:56:10  -5.89  -4.21  -858.771379    2             
iter:   4  16:56:40  -5.85  -4.30  -858.771432    2             
iter:   5  16:57:12  -6.22  -4.43  -858.771388    2             
iter:   6  16:57:43  -6.48  -4.55  -858.771379    2             
iter:   7  16:58:14  -6.87  -4.68  -858.771430    2             
iter:   8  16:58:45  -6.81  -4.82  -858.771385    2             
iter:   9  16:59:17  -7.63  -4.98  -858.771366    2             

Converged after 9 iterations.

Dipole moment: (-7.374912, 0.303457, -1.207665) |e|*Ang

Energy contributions relative to reference atoms: (reference = -935653.237240)

Kinetic:       +625.937278
Potential:     -791.268945
External:        +0.000000
XC:            -699.492901
Entropy (-ST):   -0.540324
Local:           +6.323364
--------------------------
Free energy:   -859.041528
Extrapolated:  -858.771366

Fermi level: -1.33190

Showing all kpts
 Kpt  Band  Eigenvalues  Occupancy
  0   411     -2.96550    1.00000
  0   412     -1.26131    0.33050
  0   413     -1.23493    0.27493
  0   414     -1.18135    0.18160

  1   411     -2.96556    1.00000
  1   412     -1.25528    0.31730
  1   413     -1.24140    0.28801
  1   414     -1.18170    0.18213


