
  ___ ___ ___ _ _ _  
 |   |   |_  | | | | 
 | | | | | . | | | | 
 |__ |  _|___|_____|  1.5.1
 |___|_|             

User:   siva@s84n43.grendel.cscaa.dk
Date:   Thu Feb 27 10:51:25 2020
Arch:   x86_64
Pid:    6649
Python: 3.6.3
gpaw:   /home/siva/gpaw-1.5.1/gpaw
_gpaw:  /home/siva/gpaw-1.5.1/build/bin.linux-x86_64-3.6/gpaw-python
ase:    /home/siva/env1.5/lib/python3.6/site-packages/ase (version 3.17.0)
numpy:  /home/siva/env1.5/lib/python3.6/site-packages/numpy (version 1.16.0)
scipy:  /home/siva/env1.5/lib/python3.6/site-packages/scipy (version 1.2.0)
units:  Angstrom and eV
cores:  100
Extra parameters: {'blacs': True}

Input parameters:
  basis: dzp
  kpts: [2 2 1]
  maxiter: 99
  mode: {ecut: 500.0,
         gammacentered: False,
         name: pw}
  xc: PBE

System changes: positions, numbers, cell, pbc, initial_charges, initial_magmoms 

Initialize ...

O-setup:
  name: Oxygen
  id: 32ecd46bf208036f09c70b0ec9a88b78
  Z: 8
  valence: 6
  core: 2
  charge: 0.0
  file: /home/wido/sw/gpaw/basis/gpaw-setups-0.9.20000/O.PBE.gz
  cutoffs: 0.67(comp), 1.17(filt), 0.83(core), lmax=2
  valence states:
                energy  radius
    2s(2.00)   -23.961   0.688
    2p(4.00)    -9.029   0.598
    *s           3.251   0.688
    *p          18.182   0.598
    *d           0.000   0.619

  LCAO basis set for O:
    Name: dzp
    File: /home/wido/sw/gpaw/basis/gpaw-setups-0.9.20000/O.dzp.basis.gz
    Number of radial functions: 5
    Number of spherical harmonics: 13
      l=0, rc=4.3438 Bohr: 2s-sz confined orbital
      l=1, rc=5.3906 Bohr: 2p-sz confined orbital
      l=0, rc=2.2969 Bohr: 2s-dz split-valence wave
      l=1, rc=2.8906 Bohr: 2p-dz split-valence wave
      l=2, rc=5.3906 Bohr: d-type Gaussian polarization

Ti-setup:
  name: Titanium
  id: d282db07e62ae71292040bf25b25ccdd
  Z: 22
  valence: 12
  core: 10
  charge: 0.0
  file: /home/wido/sw/gpaw/basis/gpaw-setups-0.9.20000/Ti.PBE.gz
  cutoffs: 1.22(comp), 2.23(filt), 1.02(core), lmax=2
  valence states:
                energy  radius
    3s(2.00)   -62.623   1.270
    4s(2.00)    -4.466   1.270
    3p(6.00)   -38.862   1.058
    4p(0.00)    -1.466   1.058
    3d(2.00)    -4.258   1.058
    *d          22.953   1.058

  LCAO basis set for Ti:
    Name: dzp
    File: /home/wido/sw/gpaw/basis/gpaw-setups-0.9.20000/Ti.dzp.basis.gz
    Number of radial functions: 11
    Number of spherical harmonics: 29
      l=0, rc=3.4375 Bohr: 3s-sz confined orbital
      l=0, rc=9.9062 Bohr: 4s-sz confined orbital
      l=1, rc=3.8906 Bohr: 3p-sz confined orbital
      l=1, rc=13.1094 Bohr: 4p-sz confined orbital
      l=2, rc=6.6250 Bohr: 3d-sz confined orbital
      l=0, rc=2.1406 Bohr: 3s-dz split-valence wave
      l=0, rc=6.0156 Bohr: 4s-dz split-valence wave
      l=1, rc=2.3125 Bohr: 3p-dz split-valence wave
      l=1, rc=8.1094 Bohr: 4p-dz split-valence wave
      l=2, rc=3.8594 Bohr: 3d-dz split-valence wave
      l=1, rc=9.9062 Bohr: p-type Gaussian polarization

V-setup:
  name: Vanadium
  id: a8354638d66c808f8c867a10b63fd727
  Z: 23
  valence: 13
  core: 10
  charge: 0.0
  file: /home/wido/sw/gpaw/basis/gpaw-setups-0.9.20000/V.PBE.gz
  cutoffs: 1.19(comp), 2.14(filt), 0.96(core), lmax=2
  valence states:
                energy  radius
    3s(2.00)   -70.222   1.254
    4s(2.00)    -4.702   1.254
    3p(6.00)   -44.043   1.281
    4p(0.00)    -1.444   1.281
    3d(3.00)    -5.164   1.169
    *d          22.047   1.169

  LCAO basis set for V:
    Name: dzp
    File: /home/wido/sw/gpaw/basis/gpaw-setups-0.9.20000/V.dzp.basis.gz
    Number of radial functions: 11
    Number of spherical harmonics: 29
      l=0, rc=3.2656 Bohr: 3s-sz confined orbital
      l=0, rc=9.5312 Bohr: 4s-sz confined orbital
      l=1, rc=3.6719 Bohr: 3p-sz confined orbital
      l=1, rc=12.8750 Bohr: 4p-sz confined orbital
      l=2, rc=6.0938 Bohr: 3d-sz confined orbital
      l=0, rc=2.0625 Bohr: 3s-dz split-valence wave
      l=0, rc=5.7656 Bohr: 4s-dz split-valence wave
      l=1, rc=2.4062 Bohr: 3p-dz split-valence wave
      l=1, rc=7.8906 Bohr: 4p-dz split-valence wave
      l=2, rc=3.6562 Bohr: 3d-dz split-valence wave
      l=1, rc=9.5312 Bohr: p-type Gaussian polarization

H-setup:
  name: Hydrogen
  id: d65de229564ff8ea4db303e23b6d1ecf
  Z: 1
  valence: 1
  core: 0
  charge: 0.0
  file: /home/wido/sw/gpaw/basis/gpaw-setups-0.9.20000/H.PBE.gz
  cutoffs: 0.48(comp), 0.85(filt), 0.53(core), lmax=2
  valence states:
                energy  radius
    1s(1.00)    -6.494   0.476
    *s          20.717   0.476
    *p           0.000   0.476

  LCAO basis set for H:
    Name: dzp
    File: /home/wido/sw/gpaw/basis/gpaw-setups-0.9.20000/H.dzp.basis.gz
    Number of radial functions: 3
    Number of spherical harmonics: 5
      l=0, rc=6.4219 Bohr: 1s-sz confined orbital
      l=0, rc=3.6094 Bohr: 1s-dz split-valence wave
      l=1, rc=6.4219 Bohr: p-type Gaussian polarization

Reference energy: -935653.237240

Spin-paired calculation

Occupation numbers:
  Fermi-Dirac: width=0.1000 eV

Convergence criteria:
  Maximum total energy change: 0.0005 eV / electron
  Maximum integral of absolute density change: 0.0001 electrons
  Maximum integral of absolute eigenstate change: 4e-08 eV^2
  Maximum number of iterations: 99

Symmetries present (total): 1

  ( 1  0  0)
  ( 0  1  0)
  ( 0  0  1)

4 k-points: 2 x 2 x 1 Monkhorst-Pack grid
2 k-points in the irreducible part of the Brillouin zone
       k-points in crystal coordinates                weights
   0:     0.25000000   -0.25000000    0.00000000          2/4
   1:     0.25000000    0.25000000    0.00000000          2/4

Wave functions: Plane wave expansion
  Cutoff energy: 500.000 eV
  Number of coefficients (min, max): 94343, 94343
  Pulay-stress correction: 0.000000 eV/Ang^3 (de/decut=0.000000)
  Using FFTW library
  ScaLapack parameters: grid=1x1, blocksize=None
  Wavefunction extrapolation:
    Improved wavefunction reuse through dual PAW basis 

Eigensolver
   Davidson(niter=2, smin=None, normalize=True) 

Densities:
  Coarse grid: 54*80*125 grid
  Fine grid: 108*160*250 grid
  Total Charge: 0.000000 

Density mixing:
  Method: separate
  Backend: pulay
  Linear mixing parameter: 0.05
  Mixing with 5 old densities
  Damping of long wave oscillations: 50 

Hamiltonian:
  XC and Coulomb potentials evaluated on a 108*160*250 grid
  Using the PBE Exchange-Correlation functional
 

XC parameters: PBE with 2 nearest neighbor stencil

Memory estimate:
  Process memory now: 329.61 MiB
  Calculator: 1549.87 MiB
    Density: 33.11 MiB
      Arrays: 10.71 MiB
      Localized functions: 18.27 MiB
      Mixer: 4.12 MiB
    Hamiltonian: 7.53 MiB
      Arrays: 7.00 MiB
      XC: 0.00 MiB
      Poisson: 0.00 MiB
      vbar: 0.53 MiB
    Wavefunctions: 1509.23 MiB
      Arrays psit_nG: 719.78 MiB
      Eigensolver: 765.14 MiB
      Projections: 1.16 MiB
      Projectors: 2.09 MiB
      PW-descriptor: 21.07 MiB

Total number of cores used: 20
Parallelization over k-points: 2
Domain decomposition: 1 x 2 x 5

Number of atoms: 105
Number of atomic orbitals: 1893
Number of bands in calculation: 500
Bands to converge: occupied states only
Number of valence electrons: 826

... initialized

Initializing position-dependent things.

Density initialized from atomic densities
Creating initial wave functions:
  500 bands from LCAO basis set

          .------------------------.  
         /|                        |  
        / |                        |  
       /  |                        |  
      /   |                        |  
     /    |                        |  
    /     |                        |  
   /      |                        |  
  /       |                        |  
 *        |                        |  
 |        |                        |  
 |        |                        |  
 |        |                        |  
 |        O      O            O    |  
 |        |  HOi      O  H  O      |  
 |      O |    OV  O     OTiV    Ti|  
 |    O   | Oi     Oi     O   O    |  
 |    O   |      O     OTi    TiO  |  
 |        TiO     O         O      |  
 |        O     TiO  OTi O   Ti    |  
 |  O  O  |O  TiTi    Ti   OTiO  O |  
 |      Tii    OO    OO   O        |  
 |      OO| OO    OTii    Tii      |  
 |   O Ti | Tii     O   OO     O   |  
 |    O   |O     OTi     Oi        |  
 |  Ti    TO   O  O    O     O     |  
 |  O    O|     Ti    Ti           |  
 |       Ti         O      O       |  
 |        |  O                     |  
 |        .------------------------.  
 |       /                        /   
 |      /                        /    
 |     /                        /     
 |    /                        /      
 |   /                        /       
 |  /                        /        
 | /                        /         
 |/                        /          
 *------------------------*           

Positions:
   0 O      9.977970    2.852059    7.392606    ( 0.0000,  0.0000,  0.0000)
   1 O      4.762084    0.966549    7.421594    ( 0.0000,  0.0000,  0.0000)
   2 Ti     2.981352    0.964105    8.318874    ( 0.0000,  0.0000,  0.0000)
   3 Ti     8.199297    2.794388    8.277925    ( 0.0000,  0.0000,  0.0000)
   4 Ti     0.627970    2.840658    8.984382    ( 0.0000,  0.0000,  0.0000)
   5 Ti     5.860748    0.932964    8.947851    ( 0.0000,  0.0000,  0.0000)
   6 O      1.077139    0.959621    8.936512    ( 0.0000,  0.0000,  0.0000)
   7 O      6.331658    2.842814    8.930508    ( 0.0000,  0.0000,  0.0000)
   8 O      9.250884    2.788400    9.820127    ( 0.0000,  0.0000,  0.0000)
   9 O      4.061699    0.969746    9.842454    ( 0.0000,  0.0000,  0.0000)
  10 O      7.760281    0.921744    8.321645    ( 0.0000,  0.0000,  0.0000)
  11 O      2.544256    2.892711    8.356023    ( 0.0000,  0.0000,  0.0000)
  12 O      1.087261    2.899706   10.992789    ( 0.0000,  0.0000,  0.0000)
  13 O      6.282783    0.925403   10.951315    ( 0.0000,  0.0000,  0.0000)
  14 Ti     4.394168    0.981238   11.912743    ( 0.0000,  0.0000,  0.0000)
  15 Ti     9.562250    2.825128   11.881583    ( 0.0000,  0.0000,  0.0000)
  16 Ti     2.014333    2.856322   12.516275    ( 0.0000,  0.0000,  0.0000)
  17 Ti     7.193791    0.937274   12.477349    ( 0.0000,  0.0000,  0.0000)
  18 O      2.564931    0.972278   12.706337    ( 0.0000,  0.0000,  0.0000)
  19 O      7.717852    2.857657   12.687519    ( 0.0000,  0.0000,  0.0000)
  20 O      0.380828    2.844987   13.392482    ( 0.0000,  0.0000,  0.0000)
  21 O      5.566435    1.035635   13.340466    ( 0.0000,  0.0000,  0.0000)
  22 O      9.169262    0.948592   11.931410    ( 0.0000,  0.0000,  0.0000)
  23 O      3.955958    2.922871   11.877844    ( 0.0000,  0.0000,  0.0000)
  24 O      9.990893    6.702719    7.356201    ( 0.0000,  0.0000,  0.0000)
  25 O      4.554872    4.785234    8.081420    ( 0.0000,  0.0000,  0.0000)
  26 Ti     2.745077    4.782224    7.962897    ( 0.0000,  0.0000,  0.0000)
  27 Ti     8.173311    6.722223    8.213593    ( 0.0000,  0.0000,  0.0000)
  28 Ti     0.658090    6.694215    9.101516    ( 0.0000,  0.0000,  0.0000)
  29 Ti     6.073941    4.764853    9.094807    ( 0.0000,  0.0000,  0.0000)
  30 O      1.038940    4.772102    8.926664    ( 0.0000,  0.0000,  0.0000)
  31 O      6.353977    6.704952    8.937126    ( 0.0000,  0.0000,  0.0000)
  32 O      9.240183    6.738457    9.772682    ( 0.0000,  0.0000,  0.0000)
  33 O      7.836160    4.772465    8.333354    ( 0.0000,  0.0000,  0.0000)
  34 O      2.533874    6.661486    8.350280    ( 0.0000,  0.0000,  0.0000)
  35 O      1.067580    6.558131   11.061148    ( 0.0000,  0.0000,  0.0000)
  36 O      5.887439    4.742477   10.932672    ( 0.0000,  0.0000,  0.0000)
  37 Ti     4.414062    4.790217   12.246214    ( 0.0000,  0.0000,  0.0000)
  38 Ti     9.449869    6.660261   11.716523    ( 0.0000,  0.0000,  0.0000)
  39 Ti     2.037913    6.638307   12.700678    ( 0.0000,  0.0000,  0.0000)
  40 Ti     7.354475    4.748846   12.811182    ( 0.0000,  0.0000,  0.0000)
  41 O      2.545154    4.730236   12.938650    ( 0.0000,  0.0000,  0.0000)
  42 O      7.638658    6.655508   12.561072    ( 0.0000,  0.0000,  0.0000)
  43 O      0.350853    6.684349   13.446560    ( 0.0000,  0.0000,  0.0000)
  44 O      5.663807    4.785695   13.539442    ( 0.0000,  0.0000,  0.0000)
  45 O      9.093248    4.773473   11.800637    ( 0.0000,  0.0000,  0.0000)
  46 O      3.946827    6.580801   11.804472    ( 0.0000,  0.0000,  0.0000)
  47 O      9.956379   10.527000    7.394736    ( 0.0000,  0.0000,  0.0000)
  48 O      4.808312    8.597078    7.383618    ( 0.0000,  0.0000,  0.0000)
  49 Ti     2.933133    8.599664    8.220338    ( 0.0000,  0.0000,  0.0000)
  50 Ti     8.157306   10.571179    8.263037    ( 0.0000,  0.0000,  0.0000)
  51 Ti     0.694366   10.527149    9.109537    ( 0.0000,  0.0000,  0.0000)
  52 Ti     5.901091    8.621872    8.909641    ( 0.0000,  0.0000,  0.0000)
  53 O      1.099280    8.593900    8.974255    ( 0.0000,  0.0000,  0.0000)
  54 O      6.269044   10.524360    8.925283    ( 0.0000,  0.0000,  0.0000)
  55 O      9.232658   10.528358    9.803583    ( 0.0000,  0.0000,  0.0000)
  56 O      4.066408    8.535836    9.742841    ( 0.0000,  0.0000,  0.0000)
  57 O      7.768527    8.626592    8.281214    ( 0.0000,  0.0000,  0.0000)
  58 O      2.579268   10.493538    8.363114    ( 0.0000,  0.0000,  0.0000)
  59 O      1.075708   10.552984   11.042235    ( 0.0000,  0.0000,  0.0000)
  60 O      6.219591    8.636972   11.007779    ( 0.0000,  0.0000,  0.0000)
  61 Ti     4.257658    8.611199   11.631317    ( 0.0000,  0.0000,  0.0000)
  62 Ti     9.491609   10.579643   11.813266    ( 0.0000,  0.0000,  0.0000)
  63 Ti     2.074877   10.550103   12.722188    ( 0.0000,  0.0000,  0.0000)
  64 Ti     7.214935    8.611110   12.526067    ( 0.0000,  0.0000,  0.0000)
  65 O      2.508273    8.567700   12.422394    ( 0.0000,  0.0000,  0.0000)
  66 O      7.656715   10.522033   12.591309    ( 0.0000,  0.0000,  0.0000)
  67 O      0.383816   10.532108   13.428937    ( 0.0000,  0.0000,  0.0000)
  68 O      5.306168    8.589973   13.404467    ( 0.0000,  0.0000,  0.0000)
  69 O      9.030565    8.586179   11.835707    ( 0.0000,  0.0000,  0.0000)
  70 O      3.992718   10.507884   11.784403    ( 0.0000,  0.0000,  0.0000)
  71 O      9.935207   14.336057    7.422328    ( 0.0000,  0.0000,  0.0000)
  72 O      4.767072   12.417568    7.427043    ( 0.0000,  0.0000,  0.0000)
  73 Ti     2.990229   12.426338    8.307753    ( 0.0000,  0.0000,  0.0000)
  74 Ti     8.163099   14.363899    8.315059    ( 0.0000,  0.0000,  0.0000)
  75 Ti     0.661630   14.331829    8.964426    ( 0.0000,  0.0000,  0.0000)
  76 Ti     5.844367   12.454865    8.997579    ( 0.0000,  0.0000,  0.0000)
  77 O      1.084310   12.415936    8.937923    ( 0.0000,  0.0000,  0.0000)
  78 O      6.245321   14.345217    8.922736    ( 0.0000,  0.0000,  0.0000)
  79 O      9.227465   14.363873    9.849940    ( 0.0000,  0.0000,  0.0000)
  80 O      4.050520   12.463386    9.843540    ( 0.0000,  0.0000,  0.0000)
  81 O      7.753667   12.446285    8.358817    ( 0.0000,  0.0000,  0.0000)
  82 O      2.565341   14.333221    8.354082    ( 0.0000,  0.0000,  0.0000)
  83 O      1.100707   14.340331   10.973708    ( 0.0000,  0.0000,  0.0000)
  84 O      6.263501   12.473617   10.985496    ( 0.0000,  0.0000,  0.0000)
  85 Ti     4.403981   12.417213   11.900348    ( 0.0000,  0.0000,  0.0000)
  86 Ti     9.574365   14.367636   11.932457    ( 0.0000,  0.0000,  0.0000)
  87 Ti     2.041504   14.347117   12.485089    ( 0.0000,  0.0000,  0.0000)
  88 Ti     7.183347   12.468971   12.581320    ( 0.0000,  0.0000,  0.0000)
  89 O      2.568687   12.438573   12.705874    ( 0.0000,  0.0000,  0.0000)
  90 O      7.723834   14.351073   12.714211    ( 0.0000,  0.0000,  0.0000)
  91 O      0.428782   14.330969   13.377619    ( 0.0000,  0.0000,  0.0000)
  92 O      5.538731   12.391829   13.374517    ( 0.0000,  0.0000,  0.0000)
  93 O      9.170405   12.431727   11.881414    ( 0.0000,  0.0000,  0.0000)
  94 O      4.021084   14.343674   11.935622    ( 0.0000,  0.0000,  0.0000)
  95 V      3.990927    8.640732   14.671527    ( 0.0000,  0.0000,  0.0000)
  96 O      3.008981   10.096723   14.486587    ( 0.0000,  0.0000,  0.0000)
  97 O      3.002179    7.095201   14.534312    ( 0.0000,  0.0000,  0.0000)
  98 O      4.620386    8.642474   16.133609    ( 0.0000,  0.0000,  0.0000)
  99 V      9.284589    7.976716   14.701413    ( 0.0000,  0.0000,  0.0000)
 100 O     10.839295    7.106266   14.547189    ( 0.0000,  0.0000,  0.0000)
 101 O      8.015551    8.495330   14.537576    ( 0.0000,  0.0000,  0.0000)
 102 O      9.865883    8.041966   16.140999    ( 0.0000,  0.0000,  0.0000)
 103 H      7.906901    8.799536   15.337110    ( 0.0000,  0.0000,  0.0000)
 104 H      2.920180    7.923189   15.293051    ( 0.0000,  0.0000,  0.0000)

Unit cell:
           periodic     x           y           z      points  spacing
  1. axis:    yes   10.341746    0.000000    0.000000    54     0.1915
  2. axis:    yes   -0.000000   15.289380    0.000000    80     0.1911
  3. axis:    yes    0.000000    0.000000   23.497201   125     0.1880

  Lengths:  10.341746  15.289380  23.497201
  Angles:   90.000000  90.000000  90.000000

Effective grid spacing dv^(1/3) = 0.1902

                     log10-error:    total        iterations:
           time      wfs    density  energy       fermi  poisson
iter:   1  10:53:22  -0.06   +inf  -959.307035    2             
iter:   2  10:53:53  -0.92  -0.95  -916.188637    32            
iter:   3  10:54:25  +0.48  -1.00  -861.969972    38            
iter:   4  10:54:56  -0.22  -1.22  -851.819834    4             
iter:   5  10:55:27  -1.29  -1.31  -844.289144    36            
iter:   6  10:55:59  -0.34  -1.32  -878.142442    35            
iter:   7  10:56:31  -0.94  -1.21  -854.904372    34            
iter:   8  10:57:02  -0.95  -1.38  -846.855029    34            
iter:   9  10:57:33  -1.25  -1.47  -846.207371    35            
iter:  10  10:58:04  -1.74  -1.53  -844.123423    35            
iter:  11  10:58:36  -1.21  -1.55  -844.540231    4             
iter:  12  10:59:06  -2.01  -1.79  -841.914939    32            
iter:  13  10:59:38  -2.24  -1.84  -840.208620    4             
iter:  14  11:00:09  -2.19  -1.91  -839.987191    4             
iter:  15  11:00:41  -2.34  -2.01  -840.335295    3             
iter:  16  11:01:13  -2.56  -2.10  -840.226371    3             
iter:  17  11:01:44  -2.80  -2.17  -839.785285    3             
iter:  18  11:02:16  -2.99  -2.26  -839.807764    3             
iter:  19  11:02:48  -3.07  -2.27  -839.732662    4             
iter:  20  11:03:19  -3.23  -2.52  -839.731499    3             
iter:  21  11:03:51  -3.65  -2.64  -839.699811    3             
iter:  22  11:04:22  -4.10  -2.69  -839.695442    3             
iter:  23  11:04:54  -3.92  -2.78  -839.688946    3             
iter:  24  11:05:26  -4.06  -2.87  -839.684968    3             
iter:  25  11:05:57  -4.46  -2.99  -839.683983    3             
iter:  26  11:06:29  -4.40  -3.08  -839.680682    3             
iter:  27  11:07:00  -4.80  -3.23  -839.683455    3             
iter:  28  11:07:32  -5.28  -3.34  -839.679447    2             
iter:  29  11:08:03  -5.24  -3.35  -839.680875    3             
iter:  30  11:08:35  -5.49  -3.48  -839.681318    2             
iter:  31  11:09:06  -5.59  -3.54  -839.680726    2             
iter:  32  11:09:37  -5.52  -3.65  -839.681238    2             
iter:  33  11:10:09  -6.12  -3.80  -839.681032    2             
iter:  34  11:10:40  -6.17  -3.88  -839.681902    2             
iter:  35  11:11:12  -6.37  -4.05  -839.681476    2             
iter:  36  11:11:43  -6.85  -4.14  -839.681541    2             
iter:  37  11:12:14  -6.82  -4.24  -839.681743    2             
iter:  38  11:12:45  -6.93  -4.36  -839.681641    2             
iter:  39  11:13:17  -7.44  -4.49  -839.681693    2             

Converged after 39 iterations.

Dipole moment: (-5.451498, 0.755038, -0.602945) |e|*Ang

Energy contributions relative to reference atoms: (reference = -935653.237240)

Kinetic:       +731.289091
Potential:     -860.719024
External:        +0.000000
XC:            -715.726210
Entropy (-ST):   -0.774498
Local:           +5.861699
--------------------------
Free energy:   -840.068942
Extrapolated:  -839.681693

Fermi level: -1.18247

Showing all kpts
 Kpt  Band  Eigenvalues  Occupancy
  0   411     -1.26779    0.70124
  0   412     -1.14559    0.40884
  0   413     -1.09194    0.28798
  0   414     -1.06043    0.22787

  1   411     -1.26886    0.70349
  1   412     -1.14069    0.39705
  1   413     -1.09833    0.30124
  1   414     -1.06021    0.22750



Forces in eV/Ang:
  0 O    -1.51526   -0.08236    1.22717
  1 O    -1.09495    0.01244    1.19585
  2 Ti    2.51404   -0.04483    1.12221
  3 Ti    2.30383    0.43573    0.53938
  4 Ti    0.12551    0.10237   -1.52822
  5 Ti   -1.69388    0.20556   -1.18472
  6 O     0.27507   -0.07179   -0.08077
  7 O     0.24626    0.09092   -0.30242
  8 O    -1.29721   -0.03340    0.25498
  9 O    -0.69683   -0.00915   -0.18539
 10 O     0.21058    0.44065   -1.06005
 11 O     0.29913   -0.18535   -0.95864
 12 O    -0.11884   -0.02555   -0.04214
 13 O     0.02220    0.06786    0.12084
 14 Ti   -0.12449   -0.12351    0.00925
 15 Ti    0.74358    0.12730    0.69816
 16 Ti   -0.16845   -0.04060    0.24007
 17 Ti   -0.35532    0.15308   -0.02575
 18 O    -0.03077    0.01174    0.06801
 19 O     0.05293   -0.04247    0.25868
 20 O    -0.34858    0.07682   -0.76898
 21 O     0.13925   -0.04580    0.05771
 22 O     0.11116    0.16442   -0.09450
 23 O     0.14410    0.02220   -0.01474
 24 O    -1.62554   -0.04049    2.15074
 25 O    -0.22451   -0.03199   -0.10252
 26 Ti   -0.02650    0.06340    0.64331
 27 Ti    3.25538    0.35369   -0.10724
 28 Ti    0.22206    0.04419   -2.57358
 29 Ti   -0.47381    0.14558    0.55937
 30 O     0.14681   -0.00595   -0.04424
 31 O    -0.06000   -0.28968   -0.10445
 32 O    -1.59762    0.04364    0.97758
 33 O    -0.00621   -0.27014   -0.91423
 34 O     0.28561    0.11688   -1.00452
 35 O    -0.59940   -0.05296    0.76940
 36 O     0.32462    0.03501    0.67365
 37 Ti    0.22659   -0.09698   -0.51372
 38 Ti    0.63470   -0.14560   -0.95653
 39 Ti    2.86171    0.08603   -1.91388
 40 Ti   -0.90008   -0.24331   -1.48274
 41 O    -0.12794    0.27297    0.09385
 42 O     0.34126    0.13626    0.79665
 43 O    -2.45410   -5.53219  -12.96555
 44 O     0.03893    0.05315    0.57362
 45 O     0.10877   -0.20111    0.46921
 46 O    -0.13239   -0.14382    0.35914
 47 O    -1.68046    0.04580    1.94270
 48 O    -1.08255   -0.02665    1.18762
 49 Ti    2.56241    0.02063    1.03836
 50 Ti    3.59279   -0.28469    0.14081
 51 Ti   -0.69019    0.01687   -1.85951
 52 Ti   -1.32726    0.12495   -1.36690
 53 O     0.24141   -0.16159    0.06306
 54 O     0.04045    0.05618   -0.10032
 55 O    -1.13149   -0.05432    0.84160
 56 O    -0.91496   -0.00530   -0.10686
 57 O     0.20172   -0.03510   -0.85607
 58 O     0.28018    0.00433   -0.88549
 59 O    -0.51866   -0.09230   -0.18532
 60 O     0.11076   -0.18823    0.22665
 61 Ti   -0.04143    0.26790    0.13595
 62 Ti    2.01624    0.33517    0.64820
 63 Ti   -0.66117   -0.07935    0.76597
 64 Ti   -1.80019    0.70759   -1.47970
 65 O    -0.19301   -0.45570   -0.22681
 66 O    -0.01819    0.26626    0.55288
 67 O    -0.92339   -0.42840   -0.90666
 68 O     0.64668   -0.18662   -0.52864
 69 O     0.58798   -0.12394    0.78098
 70 O     0.24738   -0.01505    0.03312
 71 O    -1.22207    0.05173    1.26754
 72 O    -1.18011    0.07664    1.41647
 73 Ti    2.58777   -0.11431    0.95340
 74 Ti    2.89158   -0.94171    0.83619
 75 Ti   -0.84908   -0.23763   -1.34492
 76 Ti   -1.18112   -0.48751   -1.57787
 77 O     0.22939    0.23484   -0.08132
 78 O     0.22666    0.06295   -0.23838
 79 O    -0.77510    0.00052   -0.01762
 80 O    -0.68215   -0.02256   -0.16163
 81 O     0.04329    0.20280   -0.86290
 82 O     0.22691    0.27170   -0.96969
 83 O    -0.14179    0.09640    0.03133
 84 O     0.39119    0.05956    0.88883
 85 Ti   -0.32305   -0.13320   -0.05470
 86 Ti    0.73806   -0.51993    0.15953
 87 Ti    0.09418   -0.32172    0.03574
 88 Ti   -0.78709   -0.30818   -1.53883
 89 O     0.06205    0.32351   -0.02353
 90 O    -0.07821   -0.13496    0.35349
 91 O    -0.32251    0.10220   -0.37992
 92 O     0.49162    0.01920    0.18084
 93 O    -0.19554    0.13492    0.22616
 94 O     0.02830    0.33447   -0.00109
 95 V     4.67534    5.14268   -3.47388
 96 O     0.36326   -0.87274   -0.13357
 97 O     0.58975    1.39335    1.89012
 98 O     0.12413   -0.17242    0.66988
 99 V    29.55834  -11.16144    4.10108
100 O     3.36220    2.34929   10.37352
101 O   -28.79146    8.96519  -11.30081
102 O    -1.16972    1.55653    3.51217
103 H    -3.01999    4.03634    8.43521
104 H    -5.28333   -5.43825    1.42521

System changes: positions 

Initializing position-dependent things.

Density initialized from wave functions
          .------------------------.  
         /|                        |  
        / |                        |  
       /  |                        |  
      /   |                        |  
     /    |                        |  
    /     |                        |  
   /      |                        |  
  /       |                        |  
 *        |                        |  
 |        |                        |  
 |        |                        |  
 |        |                        |  
 |        O      O            O    |  
 |        |  HOi      O  H  O      |  
 |      O |    OV  O     OTiV    Ti|  
 |    O   | Oi     Oi     O   O    |  
 |    O   |      O     OTi    TiO  |  
 |        TiO     O         O      |  
 |        O     TiO  OTi O   Ti    |  
 |  O  O  |O  TiTi    Ti   OTiO  O |  
 |      Tii    OO    OO   O        |  
 |      OO| OO    OTii    Tii      |  
 |   O Ti | Tii     O   OO     O   |  
 |    O   |O     OTi     Oi        |  
 |  Ti    TO   O  O    O     O     |  
 |  O    O|     Ti    Ti           |  
 |       Ti         O      O       |  
 |        |  O                     |  
 |        .------------------------.  
 |       /                        /   
 |      /                        /    
 |     /                        /     
 |    /                        /      
 |   /                        /       
 |  /                        /        
 | /                        /         
 |/                        /          
 *------------------------*           

Positions:
   0 O      9.977970    2.852059    7.392606    ( 0.0000,  0.0000,  0.0000)
   1 O      4.762084    0.966549    7.421594    ( 0.0000,  0.0000,  0.0000)
   2 Ti     2.981352    0.964105    8.318874    ( 0.0000,  0.0000,  0.0000)
   3 Ti     8.199297    2.794388    8.277925    ( 0.0000,  0.0000,  0.0000)
   4 Ti     0.627970    2.840658    8.984382    ( 0.0000,  0.0000,  0.0000)
   5 Ti     5.860748    0.932964    8.947851    ( 0.0000,  0.0000,  0.0000)
   6 O      1.077139    0.959621    8.936512    ( 0.0000,  0.0000,  0.0000)
   7 O      6.331658    2.842814    8.930508    ( 0.0000,  0.0000,  0.0000)
   8 O      9.250884    2.788400    9.820127    ( 0.0000,  0.0000,  0.0000)
   9 O      4.061699    0.969746    9.842454    ( 0.0000,  0.0000,  0.0000)
  10 O      7.760281    0.921744    8.321645    ( 0.0000,  0.0000,  0.0000)
  11 O      2.544256    2.892711    8.356023    ( 0.0000,  0.0000,  0.0000)
  12 O      1.087111    2.899676   10.992740    ( 0.0000,  0.0000,  0.0000)
  13 O      6.282812    0.925489   10.951469    ( 0.0000,  0.0000,  0.0000)
  14 Ti     4.394015    0.981086   11.912761    ( 0.0000,  0.0000,  0.0000)
  15 Ti     9.563172    2.825284   11.882449    ( 0.0000,  0.0000,  0.0000)
  16 Ti     2.014122    2.856274   12.516578    ( 0.0000,  0.0000,  0.0000)
  17 Ti     7.193350    0.937465   12.477322    ( 0.0000,  0.0000,  0.0000)
  18 O      2.564889    0.972291   12.706424    ( 0.0000,  0.0000,  0.0000)
  19 O      7.717924    2.857602   12.687856    ( 0.0000,  0.0000,  0.0000)
  20 O      0.380393    2.845085   13.391531    ( 0.0000,  0.0000,  0.0000)
  21 O      5.566611    1.035580   13.340543    ( 0.0000,  0.0000,  0.0000)
  22 O      9.169400    0.948794   11.931289    ( 0.0000,  0.0000,  0.0000)
  23 O      3.956137    2.922894   11.877842    ( 0.0000,  0.0000,  0.0000)
  24 O      9.990893    6.702719    7.356201    ( 0.0000,  0.0000,  0.0000)
  25 O      4.554872    4.785234    8.081420    ( 0.0000,  0.0000,  0.0000)
  26 Ti     2.745077    4.782224    7.962897    ( 0.0000,  0.0000,  0.0000)
  27 Ti     8.173311    6.722223    8.213593    ( 0.0000,  0.0000,  0.0000)
  28 Ti     0.658090    6.694215    9.101516    ( 0.0000,  0.0000,  0.0000)
  29 Ti     6.073941    4.764853    9.094807    ( 0.0000,  0.0000,  0.0000)
  30 O      1.038940    4.772102    8.926664    ( 0.0000,  0.0000,  0.0000)
  31 O      6.353977    6.704952    8.937126    ( 0.0000,  0.0000,  0.0000)
  32 O      9.240183    6.738457    9.772682    ( 0.0000,  0.0000,  0.0000)
  33 O      7.836160    4.772465    8.333354    ( 0.0000,  0.0000,  0.0000)
  34 O      2.533874    6.661486    8.350280    ( 0.0000,  0.0000,  0.0000)
  35 O      1.066832    6.558050   11.062102    ( 0.0000,  0.0000,  0.0000)
  36 O      5.887820    4.742520   10.933509    ( 0.0000,  0.0000,  0.0000)
  37 Ti     4.414357    4.790097   12.245571    ( 0.0000,  0.0000,  0.0000)
  38 Ti     9.450636    6.660077   11.715295    ( 0.0000,  0.0000,  0.0000)
  39 Ti     2.041470    6.638409   12.698273    ( 0.0000,  0.0000,  0.0000)
  40 Ti     7.353388    4.748547   12.809430    ( 0.0000,  0.0000,  0.0000)
  41 O      2.544996    4.730580   12.938761    ( 0.0000,  0.0000,  0.0000)
  42 O      7.639078    6.655686   12.562042    ( 0.0000,  0.0000,  0.0000)
  43 O      0.347798    6.677459   13.430415    ( 0.0000,  0.0000,  0.0000)
  44 O      5.663851    4.785762   13.540169    ( 0.0000,  0.0000,  0.0000)
  45 O      9.093379    4.773224   11.801216    ( 0.0000,  0.0000,  0.0000)
  46 O      3.946664    6.580629   11.804928    ( 0.0000,  0.0000,  0.0000)
  47 O      9.956379   10.527000    7.394736    ( 0.0000,  0.0000,  0.0000)
  48 O      4.808312    8.597078    7.383618    ( 0.0000,  0.0000,  0.0000)
  49 Ti     2.933133    8.599664    8.220338    ( 0.0000,  0.0000,  0.0000)
  50 Ti     8.157306   10.571179    8.263037    ( 0.0000,  0.0000,  0.0000)
  51 Ti     0.694366   10.527149    9.109537    ( 0.0000,  0.0000,  0.0000)
  52 Ti     5.901091    8.621872    8.909641    ( 0.0000,  0.0000,  0.0000)
  53 O      1.099280    8.593900    8.974255    ( 0.0000,  0.0000,  0.0000)
  54 O      6.269044   10.524360    8.925283    ( 0.0000,  0.0000,  0.0000)
  55 O      9.232658   10.528358    9.803583    ( 0.0000,  0.0000,  0.0000)
  56 O      4.066408    8.535836    9.742841    ( 0.0000,  0.0000,  0.0000)
  57 O      7.768527    8.626592    8.281214    ( 0.0000,  0.0000,  0.0000)
  58 O      2.579268   10.493538    8.363114    ( 0.0000,  0.0000,  0.0000)
  59 O      1.075059   10.552865   11.042015    ( 0.0000,  0.0000,  0.0000)
  60 O      6.219729    8.636764   11.008062    ( 0.0000,  0.0000,  0.0000)
  61 Ti     4.257601    8.611534   11.631489    ( 0.0000,  0.0000,  0.0000)
  62 Ti     9.494136   10.580054   11.814116    ( 0.0000,  0.0000,  0.0000)
  63 Ti     2.074056   10.550003   12.723173    ( 0.0000,  0.0000,  0.0000)
  64 Ti     7.212693    8.612006   12.524227    ( 0.0000,  0.0000,  0.0000)
  65 O      2.508029    8.567127   12.422116    ( 0.0000,  0.0000,  0.0000)
  66 O      7.656694   10.522367   12.592048    ( 0.0000,  0.0000,  0.0000)
  67 O      0.382664   10.531575   13.427822    ( 0.0000,  0.0000,  0.0000)
  68 O      5.306971    8.589755   13.403812    ( 0.0000,  0.0000,  0.0000)
  69 O      9.031286    8.586034   11.836667    ( 0.0000,  0.0000,  0.0000)
  70 O      3.993013   10.507866   11.784443    ( 0.0000,  0.0000,  0.0000)
  71 O      9.935207   14.336057    7.422328    ( 0.0000,  0.0000,  0.0000)
  72 O      4.767072   12.417568    7.427043    ( 0.0000,  0.0000,  0.0000)
  73 Ti     2.990229   12.426338    8.307753    ( 0.0000,  0.0000,  0.0000)
  74 Ti     8.163099   14.363899    8.315059    ( 0.0000,  0.0000,  0.0000)
  75 Ti     0.661630   14.331829    8.964426    ( 0.0000,  0.0000,  0.0000)
  76 Ti     5.844367   12.454865    8.997579    ( 0.0000,  0.0000,  0.0000)
  77 O      1.084310   12.415936    8.937923    ( 0.0000,  0.0000,  0.0000)
  78 O      6.245321   14.345217    8.922736    ( 0.0000,  0.0000,  0.0000)
  79 O      9.227465   14.363873    9.849940    ( 0.0000,  0.0000,  0.0000)
  80 O      4.050520   12.463386    9.843540    ( 0.0000,  0.0000,  0.0000)
  81 O      7.753667   12.446285    8.358817    ( 0.0000,  0.0000,  0.0000)
  82 O      2.565341   14.333221    8.354082    ( 0.0000,  0.0000,  0.0000)
  83 O      1.100529   14.340454   10.973753    ( 0.0000,  0.0000,  0.0000)
  84 O      6.263989   12.473687   10.986590    ( 0.0000,  0.0000,  0.0000)
  85 Ti     4.403564   12.417048   11.900278    ( 0.0000,  0.0000,  0.0000)
  86 Ti     9.575283   14.366987   11.932667    ( 0.0000,  0.0000,  0.0000)
  87 Ti     2.041619   14.346722   12.485140    ( 0.0000,  0.0000,  0.0000)
  88 Ti     7.182356   12.468584   12.579364    ( 0.0000,  0.0000,  0.0000)
  89 O      2.568759   12.438978   12.705846    ( 0.0000,  0.0000,  0.0000)
  90 O      7.723729   14.350903   12.714652    ( 0.0000,  0.0000,  0.0000)
  91 O      0.428379   14.331100   13.377155    ( 0.0000,  0.0000,  0.0000)
  92 O      5.539342   12.391852   13.374729    ( 0.0000,  0.0000,  0.0000)
  93 O      9.170154   12.431892   11.881723    ( 0.0000,  0.0000,  0.0000)
  94 O      4.021115   14.344093   11.935620    ( 0.0000,  0.0000,  0.0000)
  95 V      3.996743    8.647159   14.667212    ( 0.0000,  0.0000,  0.0000)
  96 O      3.009438   10.095640   14.486417    ( 0.0000,  0.0000,  0.0000)
  97 O      3.002907    7.096939   14.536668    ( 0.0000,  0.0000,  0.0000)
  98 O      4.620541    8.642283   16.134448    ( 0.0000,  0.0000,  0.0000)
  99 V      9.321355    7.962295   14.706563    ( 0.0000,  0.0000,  0.0000)
 100 O     10.842364    7.107805   14.560112    ( 0.0000,  0.0000,  0.0000)
 101 O      7.979758    8.506343   14.523521    ( 0.0000,  0.0000,  0.0000)
 102 O      9.864460    8.043375   16.145384    ( 0.0000,  0.0000,  0.0000)
 103 H      7.903231    8.804567   15.347574    ( 0.0000,  0.0000,  0.0000)
 104 H      2.913583    7.915838   15.294853    ( 0.0000,  0.0000,  0.0000)

Unit cell:
           periodic     x           y           z      points  spacing
  1. axis:    yes   10.341746    0.000000    0.000000    54     0.1915
  2. axis:    yes   -0.000000   15.289380    0.000000    80     0.1911
  3. axis:    yes    0.000000    0.000000   23.497201   125     0.1880

  Lengths:  10.341746  15.289380  23.497201
  Angles:   90.000000  90.000000  90.000000

Effective grid spacing dv^(1/3) = 0.1902

                     log10-error:    total        iterations:
           time      wfs    density  energy       fermi  poisson
iter:   1  11:14:11  -1.88   +inf  -842.808157    3             
iter:   2  11:14:44  -2.88  -2.72  -842.642571    3             
iter:   3  11:15:15  -3.58  -2.79  -842.578577    2             
iter:   4  11:15:48  -3.69  -2.99  -842.528906    3             
iter:   5  11:16:19  -3.00  -3.10  -842.456398    3             
iter:   6  11:16:50  -3.86  -3.28  -842.459413    3             
iter:   7  11:17:22  -4.44  -3.34  -842.449791    3             
iter:   8  11:17:53  -4.32  -3.46  -842.448171    3             
iter:   9  11:18:25  -3.88  -3.53  -842.448688    2             
iter:  10  11:18:56  -4.94  -3.68  -842.447656    3             
iter:  11  11:19:28  -4.10  -3.70  -842.445486    3             
iter:  12  11:19:59  -5.47  -3.82  -842.445844    2             
iter:  13  11:20:30  -4.57  -3.98  -842.446189    3             
iter:  14  11:21:02  -5.73  -3.94  -842.445959    2             
iter:  15  11:21:34  -4.91  -4.01  -842.445459    3             
iter:  16  11:22:05  -6.45  -4.25  -842.445729    2             
iter:  17  11:22:37  -6.21  -4.35  -842.445543    2             
iter:  18  11:23:08  -6.46  -4.41  -842.445843    2             
iter:  19  11:23:39  -6.04  -4.59  -842.445504    2             
iter:  20  11:24:11  -6.94  -4.76  -842.445639    2             
iter:  21  11:24:42  -6.79  -4.82  -842.445517    2             
iter:  22  11:25:13  -7.01  -4.90  -842.445576    2             
iter:  23  11:25:45  -7.55  -4.99  -842.445539    2             

Converged after 23 iterations.

Dipole moment: (-5.263481, 0.734484, -0.580087) |e|*Ang

Energy contributions relative to reference atoms: (reference = -935653.237240)

Kinetic:       +716.103226
Potential:     -850.400367
External:        +0.000000
XC:            -713.642319
Entropy (-ST):   -0.781830
Local:           +5.884836
--------------------------
Free energy:   -842.836454
Extrapolated:  -842.445539

Fermi level: -1.17554

Showing all kpts
 Kpt  Band  Eigenvalues  Occupancy
  0   411     -1.25482    0.68844
  0   412     -1.14050    0.41329
  0   413     -1.08751    0.29311
  0   414     -1.05298    0.22694

  1   411     -1.25602    0.69100
  1   412     -1.13522    0.40054
  1   413     -1.09414    0.30705
  1   414     -1.05322    0.22738



Forces in eV/Ang:
  0 O    -1.51467   -0.08217    1.22404
  1 O    -1.09311    0.01204    1.19383
  2 Ti    2.50986   -0.04112    1.12122
  3 Ti    2.31030    0.43430    0.54251
  4 Ti    0.11992    0.09942   -1.53292
  5 Ti   -1.69257    0.20515   -1.18516
  6 O     0.27591   -0.07374   -0.07849
  7 O     0.24272    0.09657   -0.29800
  8 O    -1.29597   -0.03137    0.25398
  9 O    -0.69502   -0.00908   -0.18005
 10 O     0.20831    0.43828   -1.06135
 11 O     0.29988   -0.18563   -0.95766
 12 O    -0.10337   -0.02405   -0.02676
 13 O     0.01605    0.06845    0.11261
 14 Ti   -0.11740   -0.12714    0.00626
 15 Ti    0.71377    0.11120    0.67225
 16 Ti   -0.16180   -0.06108    0.21954
 17 Ti   -0.32923    0.13391   -0.02216
 18 O    -0.03619    0.01606    0.07024
 19 O     0.04872   -0.03331    0.26238
 20 O    -0.33369    0.07871   -0.73600
 21 O     0.12784   -0.04437    0.05989
 22 O     0.11092    0.16032   -0.09357
 23 O     0.13862    0.03967   -0.01127
 24 O    -1.62080   -0.03893    2.15063
 25 O    -0.21455   -0.03110   -0.09786
 26 Ti   -0.02869    0.05999    0.63449
 27 Ti    3.25092    0.35391   -0.11270
 28 Ti    0.21967    0.04046   -2.60425
 29 Ti   -0.47302    0.14157    0.54217
 30 O     0.14589    0.00135   -0.03644
 31 O    -0.06260   -0.29062   -0.09982
 32 O    -1.58668    0.03855    0.99726
 33 O    -0.01284   -0.26920   -0.91372
 34 O     0.28428    0.11926   -1.00020
 35 O    -0.55468   -0.04681    0.76704
 36 O     0.32126    0.03565    0.68008
 37 Ti    0.26916   -0.14703   -0.48550
 38 Ti    0.46383   -0.12980   -1.07199
 39 Ti    2.98039    0.06573   -1.96013
 40 Ti   -0.89751   -0.19871   -1.49610
 41 O    -0.13378    0.31807    0.09194
 42 O     0.34380    0.07144    0.71266
 43 O    -2.25887   -4.41100  -10.18569
 44 O     0.01194    0.05009    0.55064
 45 O     0.12290   -0.18061    0.45952
 46 O    -0.17474   -0.12643    0.36730
 47 O    -1.67717    0.04547    1.93813
 48 O    -1.07898   -0.02662    1.18841
 49 Ti    2.55620    0.01891    1.02982
 50 Ti    3.60184   -0.28613    0.15036
 51 Ti   -0.70605    0.01894   -1.87499
 52 Ti   -1.32376    0.12806   -1.37603
 53 O     0.24123   -0.16482    0.06923
 54 O     0.03608    0.05482   -0.09546
 55 O    -1.12682   -0.05132    0.83143
 56 O    -0.91401   -0.00736   -0.08338
 57 O     0.19610   -0.03264   -0.85615
 58 O     0.28224    0.00510   -0.88599
 59 O    -0.48603   -0.09089   -0.15752
 60 O     0.05102   -0.18533    0.16752
 61 Ti   -0.03017    0.29760    0.08575
 62 Ti    1.91960    0.29824    0.65248
 63 Ti   -0.67034   -0.04608    0.71680
 64 Ti   -1.55604    0.68723   -1.19790
 65 O    -0.20465   -0.47051   -0.21159
 66 O    -0.00992    0.30054    0.46866
 67 O    -0.87134   -0.43085   -0.88102
 68 O     0.57338   -0.15662   -0.56156
 69 O     0.59233   -0.13561    0.71845
 70 O     0.23790   -0.03208    0.03795
 71 O    -1.22123    0.05129    1.26479
 72 O    -1.17624    0.07656    1.41655
 73 Ti    2.58055   -0.11368    0.94991
 74 Ti    2.89484   -0.93988    0.83991
 75 Ti   -0.85266   -0.23482   -1.34773
 76 Ti   -1.17839   -0.48541   -1.58167
 77 O     0.23135    0.23360   -0.07844
 78 O     0.22456    0.05892   -0.23481
 79 O    -0.77400   -0.00050   -0.02136
 80 O    -0.67627   -0.02342   -0.15091
 81 O     0.03907    0.20368   -0.86365
 82 O     0.22780    0.26950   -0.97046
 83 O    -0.13117    0.09297    0.03768
 84 O     0.36163    0.06152    0.83262
 85 Ti   -0.29929   -0.11855   -0.04231
 86 Ti    0.69747   -0.50826    0.15394
 87 Ti    0.08959   -0.30414    0.02980
 88 Ti   -0.73824   -0.33485   -1.48425
 89 O     0.05170    0.29538   -0.01443
 90 O    -0.07333   -0.12234    0.34701
 91 O    -0.30377    0.09862   -0.36301
 92 O     0.45479    0.01892    0.17013
 93 O    -0.18053    0.13853    0.21944
 94 O     0.02537    0.32301   -0.00089
 95 V     4.36157    4.76158   -3.11915
 96 O     0.34990   -0.81593   -0.13559
 97 O     0.58467    1.47970    1.88607
 98 O     0.06438   -0.15084    0.52922
 99 V    18.32646   -6.53238    2.47876
100 O     3.66479    0.98273    7.80442
101 O   -19.02585    5.41606   -8.64685
102 O    -0.84564    1.54913    4.10524
103 H    -2.39526    3.25573    6.78892
104 H    -4.93982   -5.25893    1.23292

System changes: positions 

Initializing position-dependent things.

Density initialized from wave functions
          .------------------------.  
         /|                        |  
        / |                        |  
       /  |                        |  
      /   |                        |  
     /    |                        |  
    /     |                        |  
   /      |                        |  
  /       |                        |  
 *        |                        |  
 |        |                        |  
 |        |                        |  
 |        |                        |  
 |        O      O            O    |  
 |        |  HOi      O  H  O      |  
 |      O |    OV  O     OTiV    Ti|  
 |    O   | Oi     Oi     O   O    |  
 |        |      O     Ti     TiO  |  
 |    O   TiO     O         O      |  
 |        O     TiO  OTi O   Ti    |  
 |  O  O  |O  TiTi    Ti   OTiO  O |  
 |      Tii    OO    OO   O        |  
 |      OO| OO    OTii    Tii      |  
 |   O Ti | Tii     O   OO     O   |  
 |    O   |O     OTi     Oi        |  
 |  Ti    TO   O  O    O     O     |  
 |  O    O|     Ti    Ti           |  
 |       Ti         O      O       |  
 |        |  O                     |  
 |        .------------------------.  
 |       /                        /   
 |      /                        /    
 |     /                        /     
 |    /                        /      
 |   /                        /       
 |  /                        /        
 | /                        /         
 |/                        /          
 *------------------------*           

Positions:
   0 O      9.977970    2.852059    7.392606    ( 0.0000,  0.0000,  0.0000)
   1 O      4.762084    0.966549    7.421594    ( 0.0000,  0.0000,  0.0000)
   2 Ti     2.981352    0.964105    8.318874    ( 0.0000,  0.0000,  0.0000)
   3 Ti     8.199297    2.794388    8.277925    ( 0.0000,  0.0000,  0.0000)
   4 Ti     0.627970    2.840658    8.984382    ( 0.0000,  0.0000,  0.0000)
   5 Ti     5.860748    0.932964    8.947851    ( 0.0000,  0.0000,  0.0000)
   6 O      1.077139    0.959621    8.936512    ( 0.0000,  0.0000,  0.0000)
   7 O      6.331658    2.842814    8.930508    ( 0.0000,  0.0000,  0.0000)
   8 O      9.250884    2.788400    9.820127    ( 0.0000,  0.0000,  0.0000)
   9 O      4.061699    0.969746    9.842454    ( 0.0000,  0.0000,  0.0000)
  10 O      7.760281    0.921744    8.321645    ( 0.0000,  0.0000,  0.0000)
  11 O      2.544256    2.892711    8.356023    ( 0.0000,  0.0000,  0.0000)
  12 O      1.086787    2.899587   10.992741    ( 0.0000,  0.0000,  0.0000)
  13 O      6.282836    0.925779   10.951887    ( 0.0000,  0.0000,  0.0000)
  14 Ti     4.393575    0.980529   11.912772    ( 0.0000,  0.0000,  0.0000)
  15 Ti     9.565950    2.825635   11.885083    ( 0.0000,  0.0000,  0.0000)
  16 Ti     2.013490    2.855876   12.517358    ( 0.0000,  0.0000,  0.0000)
  17 Ti     7.192157    0.937890   12.477260    ( 0.0000,  0.0000,  0.0000)
  18 O      2.564698    0.972387   12.706737    ( 0.0000,  0.0000,  0.0000)
  19 O      7.718102    2.857525   12.688992    ( 0.0000,  0.0000,  0.0000)
  20 O      0.379101    2.845428   13.388687    ( 0.0000,  0.0000,  0.0000)
  21 O      5.567067    1.035406   13.340815    ( 0.0000,  0.0000,  0.0000)
  22 O      9.169862    0.949434   11.930904    ( 0.0000,  0.0000,  0.0000)
  23 O      3.956679    2.923180   11.877830    ( 0.0000,  0.0000,  0.0000)
  24 O      9.990893    6.702719    7.356201    ( 0.0000,  0.0000,  0.0000)
  25 O      4.554872    4.785234    8.081420    ( 0.0000,  0.0000,  0.0000)
  26 Ti     2.745077    4.782224    7.962897    ( 0.0000,  0.0000,  0.0000)
  27 Ti     8.173311    6.722223    8.213593    ( 0.0000,  0.0000,  0.0000)
  28 Ti     0.658090    6.694215    9.101516    ( 0.0000,  0.0000,  0.0000)
  29 Ti     6.073941    4.764853    9.094807    ( 0.0000,  0.0000,  0.0000)
  30 O      1.038940    4.772102    8.926664    ( 0.0000,  0.0000,  0.0000)
  31 O      6.353977    6.704952    8.937126    ( 0.0000,  0.0000,  0.0000)
  32 O      9.240183    6.738457    9.772682    ( 0.0000,  0.0000,  0.0000)
  33 O      7.836160    4.772465    8.333354    ( 0.0000,  0.0000,  0.0000)
  34 O      2.533874    6.661486    8.350280    ( 0.0000,  0.0000,  0.0000)
  35 O      1.064826    6.557889   11.065293    ( 0.0000,  0.0000,  0.0000)
  36 O      5.889127    4.742672   10.936403    ( 0.0000,  0.0000,  0.0000)
  37 Ti     4.415791    4.789129   12.243738    ( 0.0000,  0.0000,  0.0000)
  38 Ti     9.451358    6.659643   11.709980    ( 0.0000,  0.0000,  0.0000)
  39 Ti     2.054769    6.638536   12.689733    ( 0.0000,  0.0000,  0.0000)
  40 Ti     7.349681    4.748040   12.803143    ( 0.0000,  0.0000,  0.0000)
  41 O      2.544397    4.732231   12.939130    ( 0.0000,  0.0000,  0.0000)
  42 O      7.640529    6.655530   12.564413    ( 0.0000,  0.0000,  0.0000)
  43 O      0.339733    6.666948   13.407467    ( 0.0000,  0.0000,  0.0000)
  44 O      5.663709    4.785949   13.542321    ( 0.0000,  0.0000,  0.0000)
  45 O      9.093990    4.772612   11.803067    ( 0.0000,  0.0000,  0.0000)
  46 O      3.945635    6.580227   11.806531    ( 0.0000,  0.0000,  0.0000)
  47 O      9.956379   10.527000    7.394736    ( 0.0000,  0.0000,  0.0000)
  48 O      4.808312    8.597078    7.383618    ( 0.0000,  0.0000,  0.0000)
  49 Ti     2.933133    8.599664    8.220338    ( 0.0000,  0.0000,  0.0000)
  50 Ti     8.157306   10.571179    8.263037    ( 0.0000,  0.0000,  0.0000)
  51 Ti     0.694366   10.527149    9.109537    ( 0.0000,  0.0000,  0.0000)
  52 Ti     5.901091    8.621872    8.909641    ( 0.0000,  0.0000,  0.0000)
  53 O      1.099280    8.593900    8.974255    ( 0.0000,  0.0000,  0.0000)
  54 O      6.269044   10.524360    8.925283    ( 0.0000,  0.0000,  0.0000)
  55 O      9.232658   10.528358    9.803583    ( 0.0000,  0.0000,  0.0000)
  56 O      4.066408    8.535836    9.742841    ( 0.0000,  0.0000,  0.0000)
  57 O      7.768527    8.626592    8.281214    ( 0.0000,  0.0000,  0.0000)
  58 O      2.579268   10.493538    8.363114    ( 0.0000,  0.0000,  0.0000)
  59 O      1.073253   10.552491   11.041561    ( 0.0000,  0.0000,  0.0000)
  60 O      6.219518    8.636024   11.008346    ( 0.0000,  0.0000,  0.0000)
  61 Ti     4.257551    8.612989   11.631497    ( 0.0000,  0.0000,  0.0000)
  62 Ti     9.501501   10.581035   11.816909    ( 0.0000,  0.0000,  0.0000)
  63 Ti     2.071184   10.550043   12.725847    ( 0.0000,  0.0000,  0.0000)
  64 Ti     7.207911    8.614746   12.521215    ( 0.0000,  0.0000,  0.0000)
  65 O      2.507088    8.565050   12.421343    ( 0.0000,  0.0000,  0.0000)
  66 O      7.656712   10.523870   12.593444    ( 0.0000,  0.0000,  0.0000)
  67 O      0.379384   10.529754   13.424324    ( 0.0000,  0.0000,  0.0000)
  68 O      5.308846    8.589321   13.401234    ( 0.0000,  0.0000,  0.0000)
  69 O      9.033790    8.585389   11.839223    ( 0.0000,  0.0000,  0.0000)
  70 O      3.993935   10.507611   11.784637    ( 0.0000,  0.0000,  0.0000)
  71 O      9.935207   14.336057    7.422328    ( 0.0000,  0.0000,  0.0000)
  72 O      4.767072   12.417568    7.427043    ( 0.0000,  0.0000,  0.0000)
  73 Ti     2.990229   12.426338    8.307753    ( 0.0000,  0.0000,  0.0000)
  74 Ti     8.163099   14.363899    8.315059    ( 0.0000,  0.0000,  0.0000)
  75 Ti     0.661630   14.331829    8.964426    ( 0.0000,  0.0000,  0.0000)
  76 Ti     5.844367   12.454865    8.997579    ( 0.0000,  0.0000,  0.0000)
  77 O      1.084310   12.415936    8.937923    ( 0.0000,  0.0000,  0.0000)
  78 O      6.245321   14.345217    8.922736    ( 0.0000,  0.0000,  0.0000)
  79 O      9.227465   14.363873    9.849940    ( 0.0000,  0.0000,  0.0000)
  80 O      4.050520   12.463386    9.843540    ( 0.0000,  0.0000,  0.0000)
  81 O      7.753667   12.446285    8.358817    ( 0.0000,  0.0000,  0.0000)
  82 O      2.565341   14.333221    8.354082    ( 0.0000,  0.0000,  0.0000)
  83 O      1.100054   14.340821   10.973961    ( 0.0000,  0.0000,  0.0000)
  84 O      6.265294   12.473956   10.989671    ( 0.0000,  0.0000,  0.0000)
  85 Ti     4.402471   12.416654   11.900191    ( 0.0000,  0.0000,  0.0000)
  86 Ti     9.577915   14.364938   11.933282    ( 0.0000,  0.0000,  0.0000)
  87 Ti     2.041960   14.345575   12.485229    ( 0.0000,  0.0000,  0.0000)
  88 Ti     7.179605   12.466990   12.573518    ( 0.0000,  0.0000,  0.0000)
  89 O      2.568899   12.440017   12.705853    ( 0.0000,  0.0000,  0.0000)
  90 O      7.723452   14.350479   12.716061    ( 0.0000,  0.0000,  0.0000)
  91 O      0.427239   14.331489   13.375762    ( 0.0000,  0.0000,  0.0000)
  92 O      5.540984   12.391928   13.375359    ( 0.0000,  0.0000,  0.0000)
  93 O      9.169501   12.432496   11.882612    ( 0.0000,  0.0000,  0.0000)
  94 O      4.021198   14.345365   11.935619    ( 0.0000,  0.0000,  0.0000)
  95 V      4.012766    8.664397   14.656678    ( 0.0000,  0.0000,  0.0000)
  96 O      3.010811   10.092628   14.485838    ( 0.0000,  0.0000,  0.0000)
  97 O      3.005328    7.103728   14.544446    ( 0.0000,  0.0000,  0.0000)
  98 O      4.620386    8.641819   16.135673    ( 0.0000,  0.0000,  0.0000)
  99 V      9.318591    7.967281   14.705409    ( 0.0000,  0.0000,  0.0000)
 100 O     10.858105    7.101743   14.574638    ( 0.0000,  0.0000,  0.0000)
 101 O      7.969187    8.503857   14.506117    ( 0.0000,  0.0000,  0.0000)
 102 O      9.863239    8.049487   16.166745    ( 0.0000,  0.0000,  0.0000)
 103 H      7.897639    8.812699   15.364382    ( 0.0000,  0.0000,  0.0000)
 104 H      2.895328    7.894767   15.298762    ( 0.0000,  0.0000,  0.0000)

Unit cell:
           periodic     x           y           z      points  spacing
  1. axis:    yes   10.341746    0.000000    0.000000    54     0.1915
  2. axis:    yes   -0.000000   15.289380    0.000000    80     0.1911
  3. axis:    yes    0.000000    0.000000   23.497201   125     0.1880

  Lengths:  10.341746  15.289380  23.497201
  Angles:   90.000000  90.000000  90.000000

Effective grid spacing dv^(1/3) = 0.1902

                     log10-error:    total        iterations:
           time      wfs    density  energy       fermi  poisson
iter:   1  11:26:39  -2.17   +inf  -844.704869    4             
iter:   2  11:27:11  -2.65  -2.51  -844.189406    4             
iter:   3  11:27:42  -3.55  -2.59  -843.937218    3             
iter:   4  11:28:14  -3.91  -2.86  -843.902533    2             
iter:   5  11:28:46  -3.37  -2.98  -843.852563    3             
iter:   6  11:29:18  -3.61  -3.16  -843.838543    3             
iter:   7  11:29:49  -3.97  -3.25  -843.837871    3             
iter:   8  11:30:21  -4.25  -3.37  -843.830444    2             
iter:   9  11:30:52  -4.99  -3.50  -843.830626    3             
iter:  10  11:31:23  -4.66  -3.57  -843.827575    3             
iter:  11  11:31:55  -5.30  -3.71  -843.830769    2             
iter:  12  11:32:27  -5.86  -3.82  -843.829247    2             
iter:  13  11:32:58  -5.92  -3.86  -843.829087    3             
iter:  14  11:33:30  -6.02  -3.96  -843.829743    2             
iter:  15  11:34:02  -6.72  -4.05  -843.829341    2             
iter:  16  11:34:33  -6.07  -4.10  -843.829626    2             
iter:  17  11:35:05  -6.39  -4.34  -843.829932    2             
iter:  18  11:35:37  -6.94  -4.48  -843.830023    2             
iter:  19  11:36:08  -6.36  -4.55  -843.829916    2             
iter:  20  11:36:40  -7.37  -4.76  -843.829824    2             
iter:  21  11:37:12  -7.46  -4.77  -843.830043    2             

Converged after 21 iterations.

Dipole moment: (-5.244852, 0.712457, -0.595926) |e|*Ang

Energy contributions relative to reference atoms: (reference = -935653.237240)

Kinetic:       +706.224196
Potential:     -843.607896
External:        +0.000000
XC:            -711.980158
Entropy (-ST):   -0.781172
Local:           +5.924401
--------------------------
Free energy:   -844.220629
Extrapolated:  -843.830043

Fermi level: -1.17026

Showing all kpts
 Kpt  Band  Eigenvalues  Occupancy
  0   411     -1.25095    0.69145
  0   412     -1.13663    0.41669
  0   413     -1.08564    0.30023
  0   414     -1.05061    0.23210

  1   411     -1.25216    0.69403
  1   412     -1.13167    0.40471
  1   413     -1.09182    0.31336
  1   414     -1.04925    0.22967



Forces in eV/Ang:
  0 O    -1.51384   -0.08141    1.22288
  1 O    -1.08804    0.01179    1.19563
  2 Ti    2.50207   -0.03790    1.11520
  3 Ti    2.33061    0.42454    0.55069
  4 Ti    0.10280    0.09355   -1.53879
  5 Ti   -1.69219    0.20281   -1.18395
  6 O     0.27650   -0.07714   -0.07672
  7 O     0.23175    0.11730   -0.28862
  8 O    -1.29313   -0.02613    0.24198
  9 O    -0.69200   -0.00887   -0.17188
 10 O     0.20335    0.43799   -1.06113
 11 O     0.30198   -0.18616   -0.95558
 12 O    -0.07657   -0.02328   -0.00426
 13 O    -0.00626    0.06942    0.08323
 14 Ti   -0.09334   -0.12076    0.00642
 15 Ti    0.63181    0.08410    0.61630
 16 Ti   -0.12520   -0.05265    0.18870
 17 Ti   -0.25534    0.09898   -0.00549
 18 O    -0.04779    0.01681    0.07304
 19 O     0.04545   -0.02013    0.26736
 20 O    -0.30519    0.07300   -0.65704
 21 O     0.09359   -0.04152    0.05930
 22 O     0.11264    0.14407   -0.09009
 23 O     0.12940    0.06214   -0.00712
 24 O    -1.61590   -0.03703    2.15992
 25 O    -0.17639   -0.02918   -0.08390
 26 Ti   -0.04454    0.05347    0.62939
 27 Ti    3.24573    0.35471   -0.13732
 28 Ti    0.24242    0.03002   -2.63281
 29 Ti   -0.46534    0.12915    0.50488
 30 O     0.13963    0.01509   -0.02816
 31 O    -0.07064   -0.29832   -0.08760
 32 O    -1.58219    0.03710    0.97282
 33 O    -0.03032   -0.26201   -0.90862
 34 O     0.27927    0.12127   -0.99082
 35 O    -0.48660   -0.04960    0.65063
 36 O     0.34653    0.04255    0.69327
 37 Ti    0.29603   -0.25854   -0.39688
 38 Ti    0.40187   -0.10124   -0.95351
 39 Ti    2.52969    0.08451   -1.69239
 40 Ti   -0.88873   -0.19367   -1.53350
 41 O    -0.08885    0.30938    0.07156
 42 O     0.33549    0.07284    0.67943
 43 O    -1.88208   -3.26693   -7.41791
 44 O    -0.03833    0.05183    0.49829
 45 O     0.10928   -0.18056    0.42585
 46 O    -0.19707   -0.08364    0.34550
 47 O    -1.66812    0.04462    1.93955
 48 O    -1.06746   -0.02701    1.19849
 49 Ti    2.53882    0.01822    1.00299
 50 Ti    3.61868   -0.28313    0.16032
 51 Ti   -0.73911    0.02226   -1.93392
 52 Ti   -1.32231    0.13542   -1.40954
 53 O     0.23723   -0.16724    0.07983
 54 O     0.02628    0.05344   -0.08349
 55 O    -1.11736   -0.05078    0.82968
 56 O    -0.90870   -0.00989   -0.02708
 57 O     0.18785   -0.03601   -0.85151
 58 O     0.28300    0.01030   -0.87951
 59 O    -0.41990   -0.08275   -0.07896
 60 O    -0.02829   -0.18427    0.09396
 61 Ti   -0.06443    0.34249   -0.07371
 62 Ti    1.76344    0.26409    0.60304
 63 Ti   -0.65523   -0.02669    0.60131
 64 Ti   -1.27849    0.65913   -1.19335
 65 O    -0.16441   -0.39100   -0.20877
 66 O     0.00003    0.25974    0.43395
 67 O    -0.79745   -0.40291   -0.81340
 68 O     0.62642   -0.08990   -0.55244
 69 O     0.54192   -0.10137    0.69870
 70 O     0.21834   -0.05473    0.05458
 71 O    -1.21776    0.05022    1.26485
 72 O    -1.16294    0.07599    1.42644
 73 Ti    2.56275   -0.11230    0.93345
 74 Ti    2.90527   -0.93449    0.84359
 75 Ti   -0.86593   -0.22464   -1.35853
 76 Ti   -1.18023   -0.47740   -1.60495
 77 O     0.23215    0.22566   -0.07156
 78 O     0.21746    0.04646   -0.22743
 79 O    -0.77101   -0.00464   -0.03199
 80 O    -0.65727   -0.02593   -0.11989
 81 O     0.03026    0.20120   -0.85881
 82 O     0.22997    0.26445   -0.96755
 83 O    -0.10665    0.08176    0.04893
 84 O     0.28618    0.05649    0.68144
 85 Ti   -0.25745   -0.07871   -0.02034
 86 Ti    0.58819   -0.45136    0.13849
 87 Ti    0.08205   -0.24836    0.01860
 88 Ti   -0.61185   -0.29239   -1.33971
 89 O     0.02866    0.22381    0.00357
 90 O    -0.06105   -0.10902    0.32274
 91 O    -0.25617    0.08568   -0.31771
 92 O     0.36938    0.00655    0.15038
 93 O    -0.14557    0.11178    0.20605
 94 O     0.01937    0.28293    0.00090
 95 V     3.43198    3.77613   -2.29550
 96 O     0.32987   -0.65763   -0.14164
 97 O     0.74835    1.69951    1.86739
 98 O     0.01927   -0.07108    0.27364
 99 V    18.48627   -6.39260    3.32822
100 O     2.86875    0.25995    5.25892
101 O   -18.46874    5.88927   -6.00723
102 O    -1.21016    1.43118    2.89499
103 H    -2.01268    2.27149    4.23253
104 H    -4.18083   -4.80300    0.81661

System changes: positions 

Initializing position-dependent things.

Density initialized from wave functions
          .------------------------.  
         /|                        |  
        / |                        |  
       /  |                        |  
      /   |                        |  
     /    |                        |  
    /     |                        |  
   /      |                        |  
  /       |                        |  
 *        |                        |  
 |        |                        |  
 |        |                        |  
 |        |                        |  
 |        O      O            O    |  
 |        |  HOi      O  H  O      |  
 |      O |    OV  O     OTiV    Ti|  
 |    O   | Oi     Oi     O   O    |  
 |        |      O     Ti     TiO  |  
 |    O   TiO     O         O      |  
 |        O     TiO  OTi O   Ti    |  
 |  O  O  |O  TiTi    Ti   OTiO  O |  
 |      Tii    OO    OO   O        |  
 |      OO| OO    OTii    Tii      |  
 |   O Ti | Tii     O   OO     O   |  
 |    O   |O     OTi     Oi        |  
 |  Ti    TO   O  O    O     O     |  
 |  O    O|     Ti    Ti           |  
 |       Ti         O      O       |  
 |        |  O                     |  
 |        .------------------------.  
 |       /                        /   
 |      /                        /    
 |     /                        /     
 |    /                        /      
 |   /                        /       
 |  /                        /        
 | /                        /         
 |/                        /          
 *------------------------*           

Positions:
   0 O      9.977970    2.852059    7.392606    ( 0.0000,  0.0000,  0.0000)
   1 O      4.762084    0.966549    7.421594    ( 0.0000,  0.0000,  0.0000)
   2 Ti     2.981352    0.964105    8.318874    ( 0.0000,  0.0000,  0.0000)
   3 Ti     8.199297    2.794388    8.277925    ( 0.0000,  0.0000,  0.0000)
   4 Ti     0.627970    2.840658    8.984382    ( 0.0000,  0.0000,  0.0000)
   5 Ti     5.860748    0.932964    8.947851    ( 0.0000,  0.0000,  0.0000)
   6 O      1.077139    0.959621    8.936512    ( 0.0000,  0.0000,  0.0000)
   7 O      6.331658    2.842814    8.930508    ( 0.0000,  0.0000,  0.0000)
   8 O      9.250884    2.788400    9.820127    ( 0.0000,  0.0000,  0.0000)
   9 O      4.061699    0.969746    9.842454    ( 0.0000,  0.0000,  0.0000)
  10 O      7.760281    0.921744    8.321645    ( 0.0000,  0.0000,  0.0000)
  11 O      2.544256    2.892711    8.356023    ( 0.0000,  0.0000,  0.0000)
  12 O      1.086529    2.899437   10.992944    ( 0.0000,  0.0000,  0.0000)
  13 O      6.282635    0.926254   10.952241    ( 0.0000,  0.0000,  0.0000)
  14 Ti     4.393109    0.979704   11.912783    ( 0.0000,  0.0000,  0.0000)
  15 Ti     9.569610    2.825951   11.888801    ( 0.0000,  0.0000,  0.0000)
  16 Ti     2.012869    2.855378   12.518318    ( 0.0000,  0.0000,  0.0000)
  17 Ti     7.190989    0.938229   12.477328    ( 0.0000,  0.0000,  0.0000)
  18 O      2.564284    0.972542   12.707268    ( 0.0000,  0.0000,  0.0000)
  19 O      7.718340    2.857539   12.690824    ( 0.0000,  0.0000,  0.0000)
  20 O      0.377295    2.845901   13.384868    ( 0.0000,  0.0000,  0.0000)
  21 O      5.567437    1.035143   13.341226    ( 0.0000,  0.0000,  0.0000)
  22 O      9.170634    0.950303   11.930331    ( 0.0000,  0.0000,  0.0000)
  23 O      3.957470    2.923865   11.877792    ( 0.0000,  0.0000,  0.0000)
  24 O      9.990893    6.702719    7.356201    ( 0.0000,  0.0000,  0.0000)
  25 O      4.554872    4.785234    8.081420    ( 0.0000,  0.0000,  0.0000)
  26 Ti     2.745077    4.782224    7.962897    ( 0.0000,  0.0000,  0.0000)
  27 Ti     8.173311    6.722223    8.213593    ( 0.0000,  0.0000,  0.0000)
  28 Ti     0.658090    6.694215    9.101516    ( 0.0000,  0.0000,  0.0000)
  29 Ti     6.073941    4.764853    9.094807    ( 0.0000,  0.0000,  0.0000)
  30 O      1.038940    4.772102    8.926664    ( 0.0000,  0.0000,  0.0000)
  31 O      6.353977    6.704952    8.937126    ( 0.0000,  0.0000,  0.0000)
  32 O      9.240183    6.738457    9.772682    ( 0.0000,  0.0000,  0.0000)
  33 O      7.836160    4.772465    8.333354    ( 0.0000,  0.0000,  0.0000)
  34 O      2.533874    6.661486    8.350280    ( 0.0000,  0.0000,  0.0000)
  35 O      1.062232    6.557632   11.069140    ( 0.0000,  0.0000,  0.0000)
  36 O      5.891633    4.742996   10.941233    ( 0.0000,  0.0000,  0.0000)
  37 Ti     4.418251    4.786423   12.241724    ( 0.0000,  0.0000,  0.0000)
  38 Ti     9.452397    6.659233   11.703203    ( 0.0000,  0.0000,  0.0000)
  39 Ti     2.070822    6.639027   12.679206    ( 0.0000,  0.0000,  0.0000)
  40 Ti     7.343652    4.747150   12.792232    ( 0.0000,  0.0000,  0.0000)
  41 O      2.543953    4.734662   12.939523    ( 0.0000,  0.0000,  0.0000)
  42 O      7.642791    6.655440   12.568182    ( 0.0000,  0.0000,  0.0000)
  43 O      0.330448    6.659976   13.394363    ( 0.0000,  0.0000,  0.0000)
  44 O      5.663001    4.786274   13.545225    ( 0.0000,  0.0000,  0.0000)
  45 O      9.094798    4.771557   11.805727    ( 0.0000,  0.0000,  0.0000)
  46 O      3.943829    6.579986   11.808826    ( 0.0000,  0.0000,  0.0000)
  47 O      9.956379   10.527000    7.394736    ( 0.0000,  0.0000,  0.0000)
  48 O      4.808312    8.597078    7.383618    ( 0.0000,  0.0000,  0.0000)
  49 Ti     2.933133    8.599664    8.220338    ( 0.0000,  0.0000,  0.0000)
  50 Ti     8.157306   10.571179    8.263037    ( 0.0000,  0.0000,  0.0000)
  51 Ti     0.694366   10.527149    9.109537    ( 0.0000,  0.0000,  0.0000)
  52 Ti     5.901091    8.621872    8.909641    ( 0.0000,  0.0000,  0.0000)
  53 O      1.099280    8.593900    8.974255    ( 0.0000,  0.0000,  0.0000)
  54 O      6.269044   10.524360    8.925283    ( 0.0000,  0.0000,  0.0000)
  55 O      9.232658   10.528358    9.803583    ( 0.0000,  0.0000,  0.0000)
  56 O      4.066408    8.535836    9.742841    ( 0.0000,  0.0000,  0.0000)
  57 O      7.768527    8.626592    8.281214    ( 0.0000,  0.0000,  0.0000)
  58 O      2.579268   10.493538    8.363114    ( 0.0000,  0.0000,  0.0000)
  59 O      1.071003   10.551990   11.041613    ( 0.0000,  0.0000,  0.0000)
  60 O      6.218435    8.634733   11.008124    ( 0.0000,  0.0000,  0.0000)
  61 Ti     4.257067    8.615767   11.629828    ( 0.0000,  0.0000,  0.0000)
  62 Ti     9.511847   10.582354   11.820698    ( 0.0000,  0.0000,  0.0000)
  63 Ti     2.066733   10.550239   12.728876    ( 0.0000,  0.0000,  0.0000)
  64 Ti     7.202661    8.618855   12.515614    ( 0.0000,  0.0000,  0.0000)
  65 O      2.506075    8.562659   12.420063    ( 0.0000,  0.0000,  0.0000)
  66 O      7.656825   10.525738   12.595357    ( 0.0000,  0.0000,  0.0000)
  67 O      0.374771   10.527138   13.419310    ( 0.0000,  0.0000,  0.0000)
  68 O      5.312702    8.589245   13.397233    ( 0.0000,  0.0000,  0.0000)
  69 O      9.037304    8.584734   11.843355    ( 0.0000,  0.0000,  0.0000)
  70 O      3.995275   10.506986   11.785140    ( 0.0000,  0.0000,  0.0000)
  71 O      9.935207   14.336057    7.422328    ( 0.0000,  0.0000,  0.0000)
  72 O      4.767072   12.417568    7.427043    ( 0.0000,  0.0000,  0.0000)
  73 Ti     2.990229   12.426338    8.307753    ( 0.0000,  0.0000,  0.0000)
  74 Ti     8.163099   14.363899    8.315059    ( 0.0000,  0.0000,  0.0000)
  75 Ti     0.661630   14.331829    8.964426    ( 0.0000,  0.0000,  0.0000)
  76 Ti     5.844367   12.454865    8.997579    ( 0.0000,  0.0000,  0.0000)
  77 O      1.084310   12.415936    8.937923    ( 0.0000,  0.0000,  0.0000)
  78 O      6.245321   14.345217    8.922736    ( 0.0000,  0.0000,  0.0000)
  79 O      9.227465   14.363873    9.849940    ( 0.0000,  0.0000,  0.0000)
  80 O      4.050520   12.463386    9.843540    ( 0.0000,  0.0000,  0.0000)
  81 O      7.753667   12.446285    8.358817    ( 0.0000,  0.0000,  0.0000)
  82 O      2.565341   14.333221    8.354082    ( 0.0000,  0.0000,  0.0000)
  83 O      1.099541   14.341282   10.974392    ( 0.0000,  0.0000,  0.0000)
  84 O      6.266625   12.474342   10.993141    ( 0.0000,  0.0000,  0.0000)
  85 Ti     4.401167   12.416427   11.900277    ( 0.0000,  0.0000,  0.0000)
  86 Ti     9.581048   14.362242   11.934078    ( 0.0000,  0.0000,  0.0000)
  87 Ti     2.042451   14.344287   12.485242    ( 0.0000,  0.0000,  0.0000)
  88 Ti     7.176500   12.464973   12.565698    ( 0.0000,  0.0000,  0.0000)
  89 O      2.568910   12.440950   12.706046    ( 0.0000,  0.0000,  0.0000)
  90 O      7.723159   14.349918   12.718087    ( 0.0000,  0.0000,  0.0000)
  91 O      0.425888   14.331968   13.373948    ( 0.0000,  0.0000,  0.0000)
  92 O      5.542774   12.391914   13.376237    ( 0.0000,  0.0000,  0.0000)
  93 O      9.168826   12.433171   11.883821    ( 0.0000,  0.0000,  0.0000)
  94 O      4.021289   14.346992   11.935646    ( 0.0000,  0.0000,  0.0000)
  95 V      4.028992    8.681964   14.648020    ( 0.0000,  0.0000,  0.0000)
  96 O      3.012827   10.089392   14.484849    ( 0.0000,  0.0000,  0.0000)
  97 O      3.011154    7.116970   14.556818    ( 0.0000,  0.0000,  0.0000)
  98 O      4.619780    8.641828   16.135108    ( 0.0000,  0.0000,  0.0000)
  99 V      9.346996    7.966048   14.717433    ( 0.0000,  0.0000,  0.0000)
 100 O     10.876355    7.093021   14.576119    ( 0.0000,  0.0000,  0.0000)
 101 O      7.931318    8.515580   14.500775    ( 0.0000,  0.0000,  0.0000)
 102 O      9.856086    8.059991   16.185790    ( 0.0000,  0.0000,  0.0000)
 103 H      7.890845    8.816755   15.367128    ( 0.0000,  0.0000,  0.0000)
 104 H      2.873532    7.867565   15.300797    ( 0.0000,  0.0000,  0.0000)

Unit cell:
           periodic     x           y           z      points  spacing
  1. axis:    yes   10.341746    0.000000    0.000000    54     0.1915
  2. axis:    yes   -0.000000   15.289380    0.000000    80     0.1911
  3. axis:    yes    0.000000    0.000000   23.497201   125     0.1880

  Lengths:  10.341746  15.289380  23.497201
  Angles:   90.000000  90.000000  90.000000

Effective grid spacing dv^(1/3) = 0.1902

                     log10-error:    total        iterations:
           time      wfs    density  energy       fermi  poisson
iter:   1  11:40:06  -2.00   +inf  -846.122563    4             
iter:   2  11:40:37  -2.93  -2.75  -845.949089    4             
iter:   3  11:41:09  -3.60  -2.79  -845.922460    3             
iter:   4  11:41:41  -3.90  -2.94  -845.890755    3             
iter:   5  11:42:13  -3.24  -3.04  -845.844888    3             
iter:   6  11:42:45  -3.88  -3.20  -845.850330    3             
iter:   7  11:43:16  -4.36  -3.28  -845.844090    3             
iter:   8  11:43:48  -4.71  -3.35  -845.842158    3             
iter:   9  11:44:20  -4.68  -3.45  -845.835091    3             
iter:  10  11:44:51  -5.10  -3.53  -845.838045    2             
iter:  11  11:45:23  -5.15  -3.66  -845.837878    3             
iter:  12  11:45:55  -5.44  -3.85  -845.836491    3             
iter:  13  11:46:26  -5.99  -3.94  -845.837434    2             
iter:  14  11:46:57  -5.81  -4.01  -845.837483    2             
iter:  15  11:47:29  -6.14  -4.15  -845.837728    2             
iter:  16  11:48:00  -6.55  -4.26  -845.837147    2             
iter:  17  11:48:32  -6.82  -4.24  -845.837750    2             
iter:  18  11:49:03  -6.65  -4.45  -845.837252    2             
iter:  19  11:49:35  -6.88  -4.60  -845.837537    2             
iter:  20  11:50:07  -7.56  -4.82  -845.837451    2             

Converged after 20 iterations.

Dipole moment: (-5.122989, 0.657124, -0.583242) |e|*Ang

Energy contributions relative to reference atoms: (reference = -935653.237240)

Kinetic:       +696.374737
Potential:     -836.870895
External:        +0.000000
XC:            -710.921754
Entropy (-ST):   -0.789589
Local:           +5.975256
--------------------------
Free energy:   -846.232245
Extrapolated:  -845.837451

Fermi level: -1.15796

Showing all kpts
 Kpt  Band  Eigenvalues  Occupancy
  0   411     -1.23101    0.67492
  0   412     -1.12623    0.42133
  0   413     -1.07782    0.30973
  0   414     -1.04220    0.23910

  1   411     -1.23242    0.67800
  1   412     -1.12122    0.40917
  1   413     -1.08423    0.32359
  1   414     -1.04020    0.23548



Forces in eV/Ang:
  0 O    -1.51288   -0.08027    1.22069
  1 O    -1.08221    0.01196    1.19693
  2 Ti    2.49199   -0.03443    1.10762
  3 Ti    2.35793    0.41186    0.56101
  4 Ti    0.08090    0.08648   -1.54671
  5 Ti   -1.69104    0.19677   -1.18307
  6 O     0.27748   -0.08066   -0.07422
  7 O     0.21661    0.14711   -0.27507
  8 O    -1.28945   -0.01858    0.22777
  9 O    -0.68918   -0.00774   -0.16136
 10 O     0.19706    0.43818   -1.06109
 11 O     0.30485   -0.18649   -0.95306
 12 O    -0.04383   -0.02182    0.02242
 13 O    -0.02586    0.07074    0.06025
 14 Ti   -0.06406   -0.11898    0.00643
 15 Ti    0.52077    0.04933    0.53121
 16 Ti   -0.07188   -0.04150    0.14807
 17 Ti   -0.17612    0.05425    0.00823
 18 O    -0.05903    0.02392    0.07651
 19 O     0.03967   -0.00742    0.27575
 20 O    -0.26672    0.07264   -0.54045
 21 O     0.05882   -0.03752    0.05657
 22 O     0.10990    0.12538   -0.08501
 23 O     0.11514    0.07799   -0.00351
 24 O    -1.60987   -0.03499    2.17069
 25 O    -0.12342   -0.02709   -0.06566
 26 Ti   -0.06554    0.04552    0.62675
 27 Ti    3.23546    0.35915   -0.17099
 28 Ti    0.27044    0.01909   -2.67433
 29 Ti   -0.45380    0.11623    0.45984
 30 O     0.13127    0.03159   -0.01769
 31 O    -0.08130   -0.31341   -0.07233
 32 O    -1.58182    0.03249    0.95483
 33 O    -0.05571   -0.25464   -0.90151
 34 O     0.27304    0.12523   -0.97971
 35 O    -0.42094   -0.05337    0.56369
 36 O     0.39469    0.04621    0.70535
 37 Ti    0.30220   -0.34264   -0.29192
 38 Ti    0.27100   -0.04866   -0.84136
 39 Ti    2.16575    0.06910   -1.49805
 40 Ti   -0.88895   -0.14576   -1.58635
 41 O    -0.06418    0.29255    0.06115
 42 O     0.32014    0.03166    0.58591
 43 O    -1.63860   -2.80992   -6.36952
 44 O    -0.08595    0.04436    0.44196
 45 O     0.11558   -0.16964    0.39131
 46 O    -0.22678   -0.05308    0.32206
 47 O    -1.65437    0.04334    1.94028
 48 O    -1.05551   -0.02810    1.20830
 49 Ti    2.51870    0.01800    0.96924
 50 Ti    3.64218   -0.28081    0.17900
 51 Ti   -0.78681    0.02621   -2.00406
 52 Ti   -1.31605    0.14724   -1.45013
 53 O     0.23326   -0.17113    0.09381
 54 O     0.01404    0.05081   -0.07029
 55 O    -1.10271   -0.04863    0.81697
 56 O    -0.90719   -0.01470    0.00721
 57 O     0.17949   -0.04117   -0.84672
 58 O     0.28474    0.01500   -0.87182
 59 O    -0.34258   -0.07239   -0.00706
 60 O    -0.10388   -0.17803   -0.01922
 61 Ti   -0.07568    0.38557   -0.15592
 62 Ti    1.51969    0.20341    0.54492
 63 Ti   -0.56138   -0.01291    0.49906
 64 Ti   -0.88734    0.60378   -0.87102
 65 O    -0.15999   -0.31615   -0.19459
 66 O     0.01570    0.24406    0.33465
 67 O    -0.72439   -0.38982   -0.69574
 68 O     0.59301   -0.03048   -0.57630
 69 O     0.50902   -0.07058    0.62705
 70 O     0.18864   -0.06164    0.06244
 71 O    -1.21328    0.04912    1.26436
 72 O    -1.14842    0.07533    1.43678
 73 Ti    2.54416   -0.11045    0.91603
 74 Ti    2.91708   -0.92946    0.84873
 75 Ti   -0.88156   -0.21314   -1.37018
 76 Ti   -1.18249   -0.46943   -1.63208
 77 O     0.23321    0.21621   -0.06247
 78 O     0.20929    0.03367   -0.21889
 79 O    -0.76715   -0.00915   -0.04505
 80 O    -0.63687   -0.02833   -0.08682
 81 O     0.01973    0.20017   -0.85412
 82 O     0.23249    0.25903   -0.96424
 83 O    -0.07982    0.06914    0.05520
 84 O     0.19132    0.05439    0.49679
 85 Ti   -0.20773   -0.04928    0.01887
 86 Ti    0.45786   -0.38743    0.12016
 87 Ti    0.07593   -0.19091    0.00997
 88 Ti   -0.46201   -0.27537   -1.13240
 89 O     0.00031    0.15265    0.02085
 90 O    -0.04514   -0.08424    0.29288
 91 O    -0.20158    0.07178   -0.25988
 92 O     0.27658   -0.00101    0.11149
 93 O    -0.10122    0.09140    0.18908
 94 O     0.01092    0.24115    0.00260
 95 V     2.66495    2.91290   -1.60398
 96 O     0.25619   -0.45858   -0.16145
 97 O     0.79323    1.51447    1.55443
 98 O     0.03821    0.02050    0.15212
 99 V    12.60931   -4.03767    2.21811
100 O     2.56954    0.06453    4.51903
101 O   -12.65206    3.54699   -4.94991
102 O    -0.99032    1.30207    2.85038
103 H    -1.84854    2.11700    3.91983
104 H    -3.51830   -4.11304    0.67985

System changes: positions 

Initializing position-dependent things.

Density initialized from wave functions
          .------------------------.  
         /|                        |  
        / |                        |  
       /  |                        |  
      /   |                        |  
     /    |                        |  
    /     |                        |  
   /      |                        |  
  /       |                        |  
 *        |                        |  
 |        |                        |  
 |        |                        |  
 |        |                        |  
 |        O      O            O    |  
 |        |  HOi      O  H  O      |  
 |      O |    OV  O     OTiV    Ti|  
 |    O   | Oi     Oi     O   O    |  
 |        |      O     Ti     TiO  |  
 |    O   TiO     O         O      |  
 |        O     TiO  OTi O   Ti    |  
 |  O  O  |O  OTii    Ti   OTiO  O |  
 |      Tii    OO    OO   O        |  
 |      OO| OO    OTii    Tii      |  
 |   O Ti | Tii     O   OO     O   |  
 |    O   |O     OTi     Oi        |  
 |  Ti    TO   O  O    O     O     |  
 |  O    O|     Ti    Ti           |  
 |       Ti         O      O       |  
 |        |  O                     |  
 |        .------------------------.  
 |       /                        /   
 |      /                        /    
 |     /                        /     
 |    /                        /      
 |   /                        /       
 |  /                        /        
 | /                        /         
 |/                        /          
 *------------------------*           

Positions:
   0 O      9.977970    2.852059    7.392606    ( 0.0000,  0.0000,  0.0000)
   1 O      4.762084    0.966549    7.421594    ( 0.0000,  0.0000,  0.0000)
   2 Ti     2.981352    0.964105    8.318874    ( 0.0000,  0.0000,  0.0000)
   3 Ti     8.199297    2.794388    8.277925    ( 0.0000,  0.0000,  0.0000)
   4 Ti     0.627970    2.840658    8.984382    ( 0.0000,  0.0000,  0.0000)
   5 Ti     5.860748    0.932964    8.947851    ( 0.0000,  0.0000,  0.0000)
   6 O      1.077139    0.959621    8.936512    ( 0.0000,  0.0000,  0.0000)
   7 O      6.331658    2.842814    8.930508    ( 0.0000,  0.0000,  0.0000)
   8 O      9.250884    2.788400    9.820127    ( 0.0000,  0.0000,  0.0000)
   9 O      4.061699    0.969746    9.842454    ( 0.0000,  0.0000,  0.0000)
  10 O      7.760281    0.921744    8.321645    ( 0.0000,  0.0000,  0.0000)
  11 O      2.544256    2.892711    8.356023    ( 0.0000,  0.0000,  0.0000)
  12 O      1.086519    2.899289   10.993368    ( 0.0000,  0.0000,  0.0000)
  13 O      6.282256    0.926769   10.952427    ( 0.0000,  0.0000,  0.0000)
  14 Ti     4.392876    0.978859   11.912809    ( 0.0000,  0.0000,  0.0000)
  15 Ti     9.572514    2.826003   11.892004    ( 0.0000,  0.0000,  0.0000)
  16 Ti     2.012705    2.855031   12.519014    ( 0.0000,  0.0000,  0.0000)
  17 Ti     7.190427    0.938221   12.477522    ( 0.0000,  0.0000,  0.0000)
  18 O      2.563752    0.972761   12.707857    ( 0.0000,  0.0000,  0.0000)
  19 O      7.718555    2.857644   12.692850    ( 0.0000,  0.0000,  0.0000)
  20 O      0.375701    2.846397   13.381842    ( 0.0000,  0.0000,  0.0000)
  21 O      5.567535    1.034902   13.341632    ( 0.0000,  0.0000,  0.0000)
  22 O      9.171426    0.951058   11.929765    ( 0.0000,  0.0000,  0.0000)
  23 O      3.958188    2.924677   11.877785    ( 0.0000,  0.0000,  0.0000)
  24 O      9.990893    6.702719    7.356201    ( 0.0000,  0.0000,  0.0000)
  25 O      4.554872    4.785234    8.081420    ( 0.0000,  0.0000,  0.0000)
  26 Ti     2.745077    4.782224    7.962897    ( 0.0000,  0.0000,  0.0000)
  27 Ti     8.173311    6.722223    8.213593    ( 0.0000,  0.0000,  0.0000)
  28 Ti     0.658090    6.694215    9.101516    ( 0.0000,  0.0000,  0.0000)
  29 Ti     6.073941    4.764853    9.094807    ( 0.0000,  0.0000,  0.0000)
  30 O      1.038940    4.772102    8.926664    ( 0.0000,  0.0000,  0.0000)
  31 O      6.353977    6.704952    8.937126    ( 0.0000,  0.0000,  0.0000)
  32 O      9.240183    6.738457    9.772682    ( 0.0000,  0.0000,  0.0000)
  33 O      7.836160    4.772465    8.333354    ( 0.0000,  0.0000,  0.0000)
  34 O      2.533874    6.661486    8.350280    ( 0.0000,  0.0000,  0.0000)
  35 O      1.059957    6.557290   11.072389    ( 0.0000,  0.0000,  0.0000)
  36 O      5.894752    4.743370   10.946447    ( 0.0000,  0.0000,  0.0000)
  37 Ti     4.420776    4.782933   12.240502    ( 0.0000,  0.0000,  0.0000)
  38 Ti     9.452788    6.659253   11.697462    ( 0.0000,  0.0000,  0.0000)
  39 Ti     2.083949    6.639450   12.670035    ( 0.0000,  0.0000,  0.0000)
  40 Ti     7.337290    4.746547   12.780296    ( 0.0000,  0.0000,  0.0000)
  41 O      2.543733    4.736923   12.939840    ( 0.0000,  0.0000,  0.0000)
  42 O      7.645021    6.655159   12.571508    ( 0.0000,  0.0000,  0.0000)
  43 O      0.322247    6.653021   13.380620    ( 0.0000,  0.0000,  0.0000)
  44 O      5.661888    4.786555   13.547850    ( 0.0000,  0.0000,  0.0000)
  45 O      9.095669    4.770481   11.808238    ( 0.0000,  0.0000,  0.0000)
  46 O      3.941774    6.579967   11.811014    ( 0.0000,  0.0000,  0.0000)
  47 O      9.956379   10.527000    7.394736    ( 0.0000,  0.0000,  0.0000)
  48 O      4.808312    8.597078    7.383618    ( 0.0000,  0.0000,  0.0000)
[...]
  73 Ti     2.990229   12.426338    8.307753    ( 0.0000,  0.0000,  0.0000)
  74 Ti     8.163099   14.363899    8.315059    ( 0.0000,  0.0000,  0.0000)
  75 Ti     0.661630   14.331829    8.964426    ( 0.0000,  0.0000,  0.0000)
  76 Ti     5.844367   12.454865    8.997579    ( 0.0000,  0.0000,  0.0000)
  77 O      1.084310   12.415936    8.937923    ( 0.0000,  0.0000,  0.0000)
  78 O      6.245321   14.345217    8.922736    ( 0.0000,  0.0000,  0.0000)
  79 O      9.227465   14.363873    9.849940    ( 0.0000,  0.0000,  0.0000)
  80 O      4.050520   12.463386    9.843540    ( 0.0000,  0.0000,  0.0000)
  81 O      7.753667   12.446285    8.358817    ( 0.0000,  0.0000,  0.0000)
  82 O      2.565341   14.333221    8.354082    ( 0.0000,  0.0000,  0.0000)
  83 O      1.092758   14.330377   11.011859    ( 0.0000,  0.0000,  0.0000)
  84 O      6.256702   12.451590   10.978027    ( 0.0000,  0.0000,  0.0000)
  85 Ti     4.377330   12.407766   11.935189    ( 0.0000,  0.0000,  0.0000)
  86 Ti     9.596206   14.306536   11.989886    ( 0.0000,  0.0000,  0.0000)
  87 Ti     2.046170   14.328818   12.516971    ( 0.0000,  0.0000,  0.0000)
  88 Ti     7.185398   12.404003   12.497924    ( 0.0000,  0.0000,  0.0000)
  89 O      2.537408   12.413141   12.759409    ( 0.0000,  0.0000,  0.0000)
  90 O      7.716314   14.312227   12.721174    ( 0.0000,  0.0000,  0.0000)
  91 O      0.424791   14.333551   13.403695    ( 0.0000,  0.0000,  0.0000)
  92 O      5.555038   12.360460   13.357682    ( 0.0000,  0.0000,  0.0000)
  93 O      9.214040   12.378004   12.031614    ( 0.0000,  0.0000,  0.0000)
  94 O      4.008929   14.341467   11.982500    ( 0.0000,  0.0000,  0.0000)
  95 V      3.999342    8.673535   14.730533    ( 0.0000,  0.0000,  0.0000)
  96 O      3.000250   10.094594   14.486115    ( 0.0000,  0.0000,  0.0000)
  97 O      2.873744    7.165176   14.626221    ( 0.0000,  0.0000,  0.0000)
  98 O      4.678829    8.774781   16.163621    ( 0.0000,  0.0000,  0.0000)
  99 V      9.928034    8.908840   14.984058    ( 0.0000,  0.0000,  0.0000)
 100 O     10.844958    7.733186   15.651706    ( 0.0000,  0.0000,  0.0000)
 101 O      8.079666    8.406133   14.510150    ( 0.0000,  0.0000,  0.0000)
 102 O      9.580027    9.892594   16.198155    ( 0.0000,  0.0000,  0.0000)
 103 H      7.484712    8.747254   15.209117    ( 0.0000,  0.0000,  0.0000)
 104 H      2.087278    7.186996   15.258531    ( 0.0000,  0.0000,  0.0000)

Unit cell:
           periodic     x           y           z      points  spacing
  1. axis:    yes   10.341746    0.000000    0.000000    54     0.1915
  2. axis:    yes   -0.000000   15.289380    0.000000    80     0.1911
  3. axis:    yes    0.000000    0.000000   23.497201   125     0.1880

  Lengths:  10.341746  15.289380  23.497201
  Angles:   90.000000  90.000000  90.000000

Effective grid spacing dv^(1/3) = 0.1902

                     log10-error:    total        iterations:
           time      wfs    density  energy       fermi  poisson
iter:   1  16:47:29  -4.57   +inf  -858.578022    3             
iter:   2  16:48:01  -5.41  -4.22  -858.578245    2             
iter:   3  16:48:31  -6.03  -4.29  -858.577981    2             
iter:   4  16:49:03  -5.50  -4.35  -858.577946    2             
iter:   5  16:49:34  -6.34  -4.52  -858.577916    2             
iter:   6  16:50:05  -7.03  -4.62  -858.577933    2             
iter:   7  16:50:36  -6.71  -4.73  -858.577943    2             
iter:   8  16:51:07  -7.48  -5.04  -858.577946    2             

Converged after 8 iterations.

Dipole moment: (-3.870166, -1.360206, -1.302010) |e|*Ang

Energy contributions relative to reference atoms: (reference = -935653.237240)

Kinetic:       +621.014692
Potential:     -786.845870
External:        +0.000000
XC:            -698.821648
Entropy (-ST):   -0.543470
Local:           +6.346616
--------------------------
Free energy:   -858.849682
Extrapolated:  -858.577946

Fermi level: -1.34751

Showing all kpts
 Kpt  Band  Eigenvalues  Occupancy
  0   411     -3.04712    1.00000
  0   412     -1.27971    0.33670
  0   413     -1.24490    0.26384
  0   414     -1.19832    0.18363

  1   411     -3.04707    1.00000
  1   412     -1.27083    0.31717
  1   413     -1.25481    0.28353
  1   414     -1.19844    0.18382



Forces in eV/Ang:
  0 O    -1.51038   -0.08910    1.22523
  1 O    -1.03882    0.02170    1.21441
  2 Ti    2.49923   -0.01518    1.15108
  3 Ti    2.71558    0.28408    0.74889
  4 Ti   -0.11875    0.17121   -1.33639
  5 Ti   -1.76947    0.06262   -1.13479
  6 O     0.28773   -0.15441   -0.04645
  7 O     0.09637    0.43121   -0.15102
  8 O    -1.27439   -0.03515    0.11195
  9 O    -0.72817   -0.03847   -0.10469
 10 O     0.16164    0.49501   -1.07684
 11 O     0.34525   -0.19149   -0.94719
 12 O    -0.01206   -0.00824    0.00335
 13 O     0.00591   -0.01463   -0.00411
 14 Ti    0.00509   -0.02377    0.00072
 15 Ti    0.00362   -0.01068    0.00730
 16 Ti    0.00947   -0.00565   -0.00795
 17 Ti    0.01551   -0.02127    0.00546
 18 O     0.00141   -0.00761   -0.00241
 19 O    -0.00926   -0.00702   -0.00311
 20 O    -0.00288   -0.01384    0.00372
 21 O     0.00183   -0.01327    0.00463
 22 O     0.00801   -0.01587    0.00657
 23 O     0.00014   -0.02567    0.00521
 24 O    -1.71683   -0.06065    1.96667
 25 O     0.28953   -0.04129    0.11470
 26 Ti   -0.37284    0.09787    0.66490
 27 Ti    3.98868    0.53096    0.37343
 28 Ti   -0.46877   -0.03581   -2.50275
 29 Ti   -0.31950    0.18327   -0.25863
 30 O     0.21761   -0.16018   -0.10982
 31 O    -0.27899   -0.61666    0.04396
 32 O    -1.32039   -0.03849    0.61193
 33 O    -0.39439   -0.30794   -0.86258
 34 O     0.42264    0.13325   -1.07566
 35 O     0.01162   -0.00504    0.01417
 36 O    -0.00852   -0.01103   -0.01044
 37 Ti   -0.03316    0.00165    0.00627
 38 Ti   -0.02031   -0.03686   -0.00888
 39 Ti    0.05215   -0.01252   -0.02711
 40 Ti    0.00072    0.00721    0.00228
 41 O     0.00414    0.00720   -0.00258
 42 O     0.01617    0.00587   -0.00409
 43 O    -0.00076   -0.06378   -0.00646
 44 O     0.00334   -0.00372    0.01316
 45 O    -0.00607    0.00467    0.00622
 46 O     0.02713    0.00518    0.02101
 47 O    -1.40655    0.05766    2.08049
 48 O    -0.99736   -0.03362    1.23864
 49 Ti    2.54455   -0.10498    0.99243
 50 Ti    3.62886   -0.32218    0.38926
 51 Ti   -1.15316    0.00446   -2.10930
 52 Ti   -1.34254    0.21150   -1.21044
 53 O     0.25554    0.13750    0.18521
 54 O     0.02845   -0.01779   -0.06086
 55 O    -1.00016   -0.02424    0.89217
 56 O    -0.93755    0.02346    0.08047
 57 O     0.11694   -0.03088   -0.89028
 58 O     0.22063    0.05364   -0.77846
 59 O    -0.00372    0.00490   -0.01456
 60 O     0.00611    0.00513    0.00541
 61 Ti    0.01965   -0.01544    0.03001
 62 Ti   -0.04986    0.02149   -0.06108
 63 Ti    0.08067    0.01090   -0.07839
 64 Ti   -0.02752   -0.00387    0.00751
 65 O     0.00061   -0.02316   -0.00590
 66 O    -0.00545   -0.00483    0.00509
 67 O    -0.01882   -0.00687    0.01210
 68 O     0.01860   -0.01371    0.01757
 69 O     0.01559   -0.02636    0.00728
 70 O    -0.01163   -0.00412    0.00745
 71 O    -1.12456    0.03911    1.30349
 72 O    -1.18290    0.06803    1.44072
 73 Ti    2.64447   -0.06764    0.90571
 74 Ti    2.99150   -0.93434    0.95734
 75 Ti   -1.04499   -0.10025   -1.23901
 76 Ti   -1.23610   -0.45508   -1.76964
 77 O     0.20658    0.07190    0.04344
 78 O     0.20031    0.03520   -0.19849
 79 O    -0.73803   -0.13500    0.04770
 80 O    -0.70235   -0.06179    0.07330
 81 O     0.01932    0.17868   -0.86410
 82 O     0.22041    0.22144   -0.93704
 83 O     0.00921   -0.00427   -0.00056
 84 O    -0.02330   -0.02255    0.00275
 85 Ti    0.02142   -0.01972    0.03327
 86 Ti   -0.00548    0.00558   -0.01255
 87 Ti    0.00948    0.02563    0.01467
 88 Ti   -0.02110    0.00749   -0.02908
 89 O    -0.00201   -0.00451    0.00248
 90 O     0.00475   -0.00280    0.00843
 91 O     0.00028   -0.00876    0.01187
 92 O     0.01388   -0.01749    0.00556
 93 O     0.01287    0.00378    0.00057
 94 O    -0.00256    0.00350   -0.00868
 95 V     0.06083   -0.02339    0.05579
 96 O     0.00159    0.00246   -0.02054
 97 O    -0.05894   -0.05810    0.04473
 98 O    -0.01627   -0.02517   -0.06012
 99 V    -0.22159    0.58523    0.29018
100 O     0.18803    0.25568    0.06341
101 O     0.03330    0.03604    0.03900
102 O     0.04512    0.14200   -0.30257
103 H     0.01348   -0.05840   -0.00843
104 H    -0.05311    0.04419   -0.02003

System changes: positions 

Initializing position-dependent things.

Density initialized from wave functions
          .------------------------.  
         /|                        |  
        / |                        |  
       /  |                        |  
      /   |                        |  
     /    |                        |  
    /     |                        |  
   /      |                        |  
  /       |                        |  
 *        |                        |  
 |        |                        |  
 |        |                        |  
 |        |                   O    |  
 |        O      O                 |  
 |     O  |   Oi      O H   O V    |  
 |      O H   O V  O     OTi     Ti|  
 |        | Oi     Oi     O    O   |  
 |        |      O     OTi    TiO  |  
 |    O   TiO     O         O      |  
 |        O     TiO  O O O  Tii    |  
 |  O     |O  TiTi   Tii   O  O  O |  
 |     OTii    OO    OO   O        |  
 |      OO| OO    OTii    Tii      |  
 |   O Ti | Tii     O   OO     O   |  
 |    O   |O     OTi     Oi        |  
 |  Ti    TO   O  O    O     O     |  
 |  O    O|     Ti    Ti           |  
 |       Ti         O      O       |  
 |        |  O                     |  
 |        .------------------------.  
 |       /                        /   
 |      /                        /    
 |     /                        /     
 |    /                        /      
 |   /                        /       
 |  /                        /        
 | /                        /         
 |/                        /          
 *------------------------*           

Positions:
   0 O      9.977970    2.852059    7.392606    ( 0.0000,  0.0000,  0.0000)
   1 O      4.762084    0.966549    7.421594    ( 0.0000,  0.0000,  0.0000)
   2 Ti     2.981352    0.964105    8.318874    ( 0.0000,  0.0000,  0.0000)
   3 Ti     8.199297    2.794388    8.277925    ( 0.0000,  0.0000,  0.0000)
   4 Ti     0.627970    2.840658    8.984382    ( 0.0000,  0.0000,  0.0000)
   5 Ti     5.860748    0.932964    8.947851    ( 0.0000,  0.0000,  0.0000)
   6 O      1.077139    0.959621    8.936512    ( 0.0000,  0.0000,  0.0000)
   7 O      6.331658    2.842814    8.930508    ( 0.0000,  0.0000,  0.0000)
   8 O      9.250884    2.788400    9.820127    ( 0.0000,  0.0000,  0.0000)
   9 O      4.061699    0.969746    9.842454    ( 0.0000,  0.0000,  0.0000)
  10 O      7.760281    0.921744    8.321645    ( 0.0000,  0.0000,  0.0000)
  11 O      2.544256    2.892711    8.356023    ( 0.0000,  0.0000,  0.0000)
  12 O      1.091334    2.877841   11.026037    ( 0.0000,  0.0000,  0.0000)
  13 O      6.266651    0.923329   10.957918    ( 0.0000,  0.0000,  0.0000)
  14 Ti     4.393111    0.968005   11.939386    ( 0.0000,  0.0000,  0.0000)
  15 Ti     9.593122    2.812152   11.965324    ( 0.0000,  0.0000,  0.0000)
  16 Ti     2.020293    2.850755   12.548161    ( 0.0000,  0.0000,  0.0000)
  17 Ti     7.198910    0.926500   12.470373    ( 0.0000,  0.0000,  0.0000)
  18 O      2.565854    0.973661   12.752003    ( 0.0000,  0.0000,  0.0000)
  19 O      7.698410    2.853800   12.623686    ( 0.0000,  0.0000,  0.0000)
  20 O      0.375417    2.841758   13.404325    ( 0.0000,  0.0000,  0.0000)
  21 O      5.572561    1.006437   13.349626    ( 0.0000,  0.0000,  0.0000)
  22 O      9.188924    0.929204   11.995075    ( 0.0000,  0.0000,  0.0000)
  23 O      3.967982    2.933129   11.884579    ( 0.0000,  0.0000,  0.0000)
  24 O      9.990893    6.702719    7.356201    ( 0.0000,  0.0000,  0.0000)
  25 O      4.554872    4.785234    8.081420    ( 0.0000,  0.0000,  0.0000)
  26 Ti     2.745077    4.782224    7.962897    ( 0.0000,  0.0000,  0.0000)
  27 Ti     8.173311    6.722223    8.213593    ( 0.0000,  0.0000,  0.0000)
  28 Ti     0.658090    6.694215    9.101516    ( 0.0000,  0.0000,  0.0000)
  29 Ti     6.073941    4.764853    9.094807    ( 0.0000,  0.0000,  0.0000)
  30 O      1.038940    4.772102    8.926664    ( 0.0000,  0.0000,  0.0000)
  31 O      6.353977    6.704952    8.937126    ( 0.0000,  0.0000,  0.0000)
  32 O      9.240183    6.738457    9.772682    ( 0.0000,  0.0000,  0.0000)
  33 O      7.836160    4.772465    8.333354    ( 0.0000,  0.0000,  0.0000)
  34 O      2.533874    6.661486    8.350280    ( 0.0000,  0.0000,  0.0000)
  35 O      1.078318    6.515519   11.030518    ( 0.0000,  0.0000,  0.0000)
  36 O      5.968353    4.727297   10.990664    ( 0.0000,  0.0000,  0.0000)
  37 Ti     4.370390    4.772494   12.328438    ( 0.0000,  0.0000,  0.0000)
  38 Ti     9.552968    6.640303   11.830707    ( 0.0000,  0.0000,  0.0000)
  39 Ti     2.010097    6.660847   12.660129    ( 0.0000,  0.0000,  0.0000)
  40 Ti     7.215396    4.751191   12.405150    ( 0.0000,  0.0000,  0.0000)
  41 O      2.526533    4.737258   12.980627    ( 0.0000,  0.0000,  0.0000)
  42 O      7.633987    6.609219   12.466960    ( 0.0000,  0.0000,  0.0000)
  43 O      0.271959    6.803917   13.316815    ( 0.0000,  0.0000,  0.0000)
  44 O      5.714761    4.773948   13.526282    ( 0.0000,  0.0000,  0.0000)
  45 O      9.151506    4.739835   11.860178    ( 0.0000,  0.0000,  0.0000)
  46 O      3.953846    6.558886   11.845992    ( 0.0000,  0.0000,  0.0000)
  47 O      9.956379   10.527000    7.394736    ( 0.0000,  0.0000,  0.0000)
  48 O      4.808312    8.597078    7.383618    ( 0.0000,  0.0000,  0.0000)
  49 Ti     2.933133    8.599664    8.220338    ( 0.0000,  0.0000,  0.0000)
  50 Ti     8.157306   10.571179    8.263037    ( 0.0000,  0.0000,  0.0000)
  51 Ti     0.694366   10.527149    9.109537    ( 0.0000,  0.0000,  0.0000)
  52 Ti     5.901091    8.621872    8.909641    ( 0.0000,  0.0000,  0.0000)
  53 O      1.099280    8.593900    8.974255    ( 0.0000,  0.0000,  0.0000)
  54 O      6.269044   10.524360    8.925283    ( 0.0000,  0.0000,  0.0000)
  55 O      9.232658   10.528358    9.803583    ( 0.0000,  0.0000,  0.0000)
  56 O      4.066408    8.535836    9.742841    ( 0.0000,  0.0000,  0.0000)
  57 O      7.768527    8.626592    8.281214    ( 0.0000,  0.0000,  0.0000)
  58 O      2.579268   10.493538    8.363114    ( 0.0000,  0.0000,  0.0000)
  59 O      1.018194   10.571273   11.129564    ( 0.0000,  0.0000,  0.0000)
  60 O      6.187212    8.600580   11.053036    ( 0.0000,  0.0000,  0.0000)
  61 Ti     4.295718    8.575923   11.637157    ( 0.0000,  0.0000,  0.0000)
  62 Ti     9.607144   10.493599   11.860589    ( 0.0000,  0.0000,  0.0000)
  63 Ti     2.133889   10.477120   12.820731    ( 0.0000,  0.0000,  0.0000)
  64 Ti     7.265782    8.603338   12.571307    ( 0.0000,  0.0000,  0.0000)
  65 O      2.494776    8.537489   12.376782    ( 0.0000,  0.0000,  0.0000)
  66 O      7.658908   10.504042   12.630650    ( 0.0000,  0.0000,  0.0000)
  67 O      0.310861   10.090642   13.525821    ( 0.0000,  0.0000,  0.0000)
  68 O      5.288238    8.574440   13.445744    ( 0.0000,  0.0000,  0.0000)
  69 O      9.047405    8.582184   11.840769    ( 0.0000,  0.0000,  0.0000)
  70 O      3.940748   10.491813   11.842445    ( 0.0000,  0.0000,  0.0000)
  71 O      9.935207   14.336057    7.422328    ( 0.0000,  0.0000,  0.0000)
  72 O      4.767072   12.417568    7.427043    ( 0.0000,  0.0000,  0.0000)
  73 Ti     2.990229   12.426338    8.307753    ( 0.0000,  0.0000,  0.0000)
  74 Ti     8.163099   14.363899    8.315059    ( 0.0000,  0.0000,  0.0000)
  75 Ti     0.661630   14.331829    8.964426    ( 0.0000,  0.0000,  0.0000)
  76 Ti     5.844367   12.454865    8.997579    ( 0.0000,  0.0000,  0.0000)
  77 O      1.084310   12.415936    8.937923    ( 0.0000,  0.0000,  0.0000)
  78 O      6.245321   14.345217    8.922736    ( 0.0000,  0.0000,  0.0000)
  79 O      9.227465   14.363873    9.849940    ( 0.0000,  0.0000,  0.0000)
  80 O      4.050520   12.463386    9.843540    ( 0.0000,  0.0000,  0.0000)
  81 O      7.753667   12.446285    8.358817    ( 0.0000,  0.0000,  0.0000)
  82 O      2.565341   14.333221    8.354082    ( 0.0000,  0.0000,  0.0000)
  83 O      1.093045   14.330014   11.011900    ( 0.0000,  0.0000,  0.0000)
  84 O      6.256349   12.450768   10.978023    ( 0.0000,  0.0000,  0.0000)
  85 Ti     4.377064   12.407700   11.935467    ( 0.0000,  0.0000,  0.0000)
  86 Ti     9.596272   14.306216   11.989959    ( 0.0000,  0.0000,  0.0000)
  87 Ti     2.046137   14.328705   12.517108    ( 0.0000,  0.0000,  0.0000)
  88 Ti     7.185461   12.403716   12.497724    ( 0.0000,  0.0000,  0.0000)
  89 O      2.537473   12.413152   12.759179    ( 0.0000,  0.0000,  0.0000)
  90 O      7.716136   14.311980   12.721301    ( 0.0000,  0.0000,  0.0000)
  91 O      0.424945   14.333149   13.403710    ( 0.0000,  0.0000,  0.0000)
  92 O      5.554976   12.359756   13.357549    ( 0.0000,  0.0000,  0.0000)
  93 O      9.214084   12.377887   12.031990    ( 0.0000,  0.0000,  0.0000)
  94 O      4.008717   14.341349   11.982257    ( 0.0000,  0.0000,  0.0000)
  95 V      3.998510    8.673297   14.730554    ( 0.0000,  0.0000,  0.0000)
  96 O      2.999590   10.094321   14.486529    ( 0.0000,  0.0000,  0.0000)
  97 O      2.873984    7.164340   14.626238    ( 0.0000,  0.0000,  0.0000)
  98 O      4.677505    8.774678   16.163903    ( 0.0000,  0.0000,  0.0000)
  99 V      9.928421    8.910985   14.984010    ( 0.0000,  0.0000,  0.0000)
 100 O     10.846356    7.736216   15.651181    ( 0.0000,  0.0000,  0.0000)
 101 O      8.080236    8.406334   14.510234    ( 0.0000,  0.0000,  0.0000)
 102 O      9.581235    9.896866   16.197238    ( 0.0000,  0.0000,  0.0000)
 103 H      7.484690    8.746692   15.209124    ( 0.0000,  0.0000,  0.0000)
 104 H      2.087587    7.186358   15.258638    ( 0.0000,  0.0000,  0.0000)

Unit cell:
           periodic     x           y           z      points  spacing
  1. axis:    yes   10.341746    0.000000    0.000000    54     0.1915
  2. axis:    yes   -0.000000   15.289380    0.000000    80     0.1911
  3. axis:    yes    0.000000    0.000000   23.497201   125     0.1880

  Lengths:  10.341746  15.289380  23.497201
  Angles:   90.000000  90.000000  90.000000

Effective grid spacing dv^(1/3) = 0.1902

                     log10-error:    total        iterations:
           time      wfs    density  energy       fermi  poisson
iter:   1  16:55:09  -4.59   +inf  -858.581239    2             
iter:   2  16:55:41  -5.48  -4.28  -858.581411    2             
iter:   3  16:56:12  -6.08  -4.34  -858.581171    2             
iter:   4  16:56:43  -5.82  -4.40  -858.581225    2             
iter:   5  16:57:15  -6.70  -4.57  -858.581199    2             
iter:   6  16:57:46  -6.78  -4.65  -858.581224    2             
iter:   7  16:58:17  -6.74  -4.78  -858.581200    2             
iter:   8  16:58:48  -7.43  -4.91  -858.581204    2             

Converged after 8 iterations.

Dipole moment: (-3.799973, -1.385694, -1.301883) |e|*Ang

Energy contributions relative to reference atoms: (reference = -935653.237240)

Kinetic:       +621.029415
Potential:     -786.862788
External:        +0.000000
XC:            -698.822957
Entropy (-ST):   -0.543396
Local:           +6.346824
--------------------------
Free energy:   -858.852902
Extrapolated:  -858.581204

Fermi level: -1.34758

Showing all kpts
 Kpt  Band  Eigenvalues  Occupancy
  0   411     -3.04989    1.00000
  0   412     -1.27978    0.33671
  0   413     -1.24508    0.26406
  0   414     -1.19831    0.18353

  1   411     -3.04984    1.00000
  1   412     -1.27092    0.31721
  1   413     -1.25495    0.28368
  1   414     -1.19851    0.18382


