
  ___ ___ ___ _ _ _  
 |   |   |_  | | | | 
 | | | | | . | | | | 
 |__ |  _|___|_____|  1.5.1
 |___|_|             

User:   siva@s84n44.grendel.cscaa.dk
Date:   Thu Feb 27 10:51:25 2020
Arch:   x86_64
Pid:    9510
Python: 3.6.3
gpaw:   /home/siva/gpaw-1.5.1/gpaw
_gpaw:  /home/siva/gpaw-1.5.1/build/bin.linux-x86_64-3.6/gpaw-python
ase:    /home/siva/env1.5/lib/python3.6/site-packages/ase (version 3.17.0)
numpy:  /home/siva/env1.5/lib/python3.6/site-packages/numpy (version 1.16.0)
scipy:  /home/siva/env1.5/lib/python3.6/site-packages/scipy (version 1.2.0)
units:  Angstrom and eV
cores:  100
Extra parameters: {'blacs': True}

Input parameters:
  basis: dzp
  kpts: [2 2 1]
  maxiter: 99
  mode: {ecut: 500.0,
         gammacentered: False,
         name: pw}
  xc: PBE

System changes: positions, numbers, cell, pbc, initial_charges, initial_magmoms 

Initialize ...

O-setup:
  name: Oxygen
  id: 32ecd46bf208036f09c70b0ec9a88b78
  Z: 8
  valence: 6
  core: 2
  charge: 0.0
  file: /home/wido/sw/gpaw/basis/gpaw-setups-0.9.20000/O.PBE.gz
  cutoffs: 0.67(comp), 1.17(filt), 0.83(core), lmax=2
  valence states:
                energy  radius
    2s(2.00)   -23.961   0.688
    2p(4.00)    -9.029   0.598
    *s           3.251   0.688
    *p          18.182   0.598
    *d           0.000   0.619

  LCAO basis set for O:
    Name: dzp
    File: /home/wido/sw/gpaw/basis/gpaw-setups-0.9.20000/O.dzp.basis.gz
    Number of radial functions: 5
    Number of spherical harmonics: 13
      l=0, rc=4.3438 Bohr: 2s-sz confined orbital
      l=1, rc=5.3906 Bohr: 2p-sz confined orbital
      l=0, rc=2.2969 Bohr: 2s-dz split-valence wave
      l=1, rc=2.8906 Bohr: 2p-dz split-valence wave
      l=2, rc=5.3906 Bohr: d-type Gaussian polarization

Ti-setup:
  name: Titanium
  id: d282db07e62ae71292040bf25b25ccdd
  Z: 22
  valence: 12
  core: 10
  charge: 0.0
  file: /home/wido/sw/gpaw/basis/gpaw-setups-0.9.20000/Ti.PBE.gz
  cutoffs: 1.22(comp), 2.23(filt), 1.02(core), lmax=2
  valence states:
                energy  radius
    3s(2.00)   -62.623   1.270
    4s(2.00)    -4.466   1.270
    3p(6.00)   -38.862   1.058
    4p(0.00)    -1.466   1.058
    3d(2.00)    -4.258   1.058
    *d          22.953   1.058

  LCAO basis set for Ti:
    Name: dzp
    File: /home/wido/sw/gpaw/basis/gpaw-setups-0.9.20000/Ti.dzp.basis.gz
    Number of radial functions: 11
    Number of spherical harmonics: 29
      l=0, rc=3.4375 Bohr: 3s-sz confined orbital
      l=0, rc=9.9062 Bohr: 4s-sz confined orbital
      l=1, rc=3.8906 Bohr: 3p-sz confined orbital
      l=1, rc=13.1094 Bohr: 4p-sz confined orbital
      l=2, rc=6.6250 Bohr: 3d-sz confined orbital
      l=0, rc=2.1406 Bohr: 3s-dz split-valence wave
      l=0, rc=6.0156 Bohr: 4s-dz split-valence wave
      l=1, rc=2.3125 Bohr: 3p-dz split-valence wave
      l=1, rc=8.1094 Bohr: 4p-dz split-valence wave
      l=2, rc=3.8594 Bohr: 3d-dz split-valence wave
      l=1, rc=9.9062 Bohr: p-type Gaussian polarization

V-setup:
  name: Vanadium
  id: a8354638d66c808f8c867a10b63fd727
  Z: 23
  valence: 13
  core: 10
  charge: 0.0
  file: /home/wido/sw/gpaw/basis/gpaw-setups-0.9.20000/V.PBE.gz
  cutoffs: 1.19(comp), 2.14(filt), 0.96(core), lmax=2
  valence states:
                energy  radius
    3s(2.00)   -70.222   1.254
    4s(2.00)    -4.702   1.254
    3p(6.00)   -44.043   1.281
    4p(0.00)    -1.444   1.281
    3d(3.00)    -5.164   1.169
    *d          22.047   1.169

  LCAO basis set for V:
    Name: dzp
    File: /home/wido/sw/gpaw/basis/gpaw-setups-0.9.20000/V.dzp.basis.gz
    Number of radial functions: 11
    Number of spherical harmonics: 29
      l=0, rc=3.2656 Bohr: 3s-sz confined orbital
      l=0, rc=9.5312 Bohr: 4s-sz confined orbital
      l=1, rc=3.6719 Bohr: 3p-sz confined orbital
      l=1, rc=12.8750 Bohr: 4p-sz confined orbital
      l=2, rc=6.0938 Bohr: 3d-sz confined orbital
      l=0, rc=2.0625 Bohr: 3s-dz split-valence wave
      l=0, rc=5.7656 Bohr: 4s-dz split-valence wave
      l=1, rc=2.4062 Bohr: 3p-dz split-valence wave
      l=1, rc=7.8906 Bohr: 4p-dz split-valence wave
      l=2, rc=3.6562 Bohr: 3d-dz split-valence wave
      l=1, rc=9.5312 Bohr: p-type Gaussian polarization

H-setup:
  name: Hydrogen
  id: d65de229564ff8ea4db303e23b6d1ecf
  Z: 1
  valence: 1
  core: 0
  charge: 0.0
  file: /home/wido/sw/gpaw/basis/gpaw-setups-0.9.20000/H.PBE.gz
  cutoffs: 0.48(comp), 0.85(filt), 0.53(core), lmax=2
  valence states:
                energy  radius
    1s(1.00)    -6.494   0.476
    *s          20.717   0.476
    *p           0.000   0.476

  LCAO basis set for H:
    Name: dzp
    File: /home/wido/sw/gpaw/basis/gpaw-setups-0.9.20000/H.dzp.basis.gz
    Number of radial functions: 3
    Number of spherical harmonics: 5
      l=0, rc=6.4219 Bohr: 1s-sz confined orbital
      l=0, rc=3.6094 Bohr: 1s-dz split-valence wave
      l=1, rc=6.4219 Bohr: p-type Gaussian polarization

Reference energy: -935653.237240

Spin-paired calculation

Occupation numbers:
  Fermi-Dirac: width=0.1000 eV

Convergence criteria:
  Maximum total energy change: 0.0005 eV / electron
  Maximum integral of absolute density change: 0.0001 electrons
  Maximum integral of absolute eigenstate change: 4e-08 eV^2
  Maximum number of iterations: 99

Symmetries present (total): 1

  ( 1  0  0)
  ( 0  1  0)
  ( 0  0  1)

4 k-points: 2 x 2 x 1 Monkhorst-Pack grid
2 k-points in the irreducible part of the Brillouin zone
       k-points in crystal coordinates                weights
   0:     0.25000000   -0.25000000    0.00000000          2/4
   1:     0.25000000    0.25000000    0.00000000          2/4

Wave functions: Plane wave expansion
  Cutoff energy: 500.000 eV
  Number of coefficients (min, max): 94343, 94343
  Pulay-stress correction: 0.000000 eV/Ang^3 (de/decut=0.000000)
  Using FFTW library
  ScaLapack parameters: grid=1x1, blocksize=None
  Wavefunction extrapolation:
    Improved wavefunction reuse through dual PAW basis 

Eigensolver
   Davidson(niter=2, smin=None, normalize=True) 

Densities:
  Coarse grid: 54*80*125 grid
  Fine grid: 108*160*250 grid
  Total Charge: 0.000000 

Density mixing:
  Method: separate
  Backend: pulay
  Linear mixing parameter: 0.05
  Mixing with 5 old densities
  Damping of long wave oscillations: 50 

Hamiltonian:
  XC and Coulomb potentials evaluated on a 108*160*250 grid
  Using the PBE Exchange-Correlation functional
 

XC parameters: PBE with 2 nearest neighbor stencil

Memory estimate:
  Process memory now: 331.34 MiB
  Calculator: 1549.87 MiB
    Density: 33.11 MiB
      Arrays: 10.71 MiB
      Localized functions: 18.27 MiB
      Mixer: 4.12 MiB
    Hamiltonian: 7.53 MiB
      Arrays: 7.00 MiB
      XC: 0.00 MiB
      Poisson: 0.00 MiB
      vbar: 0.53 MiB
    Wavefunctions: 1509.23 MiB
      Arrays psit_nG: 719.78 MiB
      Eigensolver: 765.14 MiB
      Projections: 1.16 MiB
      Projectors: 2.09 MiB
      PW-descriptor: 21.07 MiB

Total number of cores used: 20
Parallelization over k-points: 2
Domain decomposition: 1 x 2 x 5

Number of atoms: 105
Number of atomic orbitals: 1893
Number of bands in calculation: 500
Bands to converge: occupied states only
Number of valence electrons: 826

... initialized

Initializing position-dependent things.

Density initialized from atomic densities
Creating initial wave functions:
  500 bands from LCAO basis set

          .------------------------.  
         /|                        |  
        / |                        |  
       /  |                        |  
      /   |                        |  
     /    |                        |  
    /     |                        |  
   /      |                        |  
  /       |                        |  
 *        |                        |  
 |        |                        |  
 |        |                        |  
 |        |                        |  
 |        O      O            O    |  
 |        |  HOi      O  H  O      |  
 |      O |    OV  O     OTi V   Ti|  
 |        | Oi     Oi     O    O   |  
 |    O   |      O     OTi    TiO  |  
 |        TiO     O         O      |  
 |        OTi   TiO  O O O   Ti    |  
 |  O  O  |O  TiTi   Tii   OTiO  O |  
 |      Tii    OO    OO   O        |  
 |      OO| OO    OTii    Tii      |  
 |   O Ti | Tii     O   OO     O   |  
 |    O   |O     OOTi    Oi        |  
 |  Ti    TO   O  O    O     O     |  
 |  O    O|     Ti    Ti           |  
 |       Ti         O      O       |  
 |        |  O                     |  
 |        .------------------------.  
 |       /                        /   
 |      /                        /    
 |     /                        /     
 |    /                        /      
 |   /                        /       
 |  /                        /        
 | /                        /         
 |/                        /          
 *------------------------*           

Positions:
   0 O      9.980185    2.844521    7.396465    ( 0.0000,  0.0000,  0.0000)
   1 O      4.767913    0.962098    7.420913    ( 0.0000,  0.0000,  0.0000)
   2 Ti     2.985668    0.961254    8.317936    ( 0.0000,  0.0000,  0.0000)
   3 Ti     8.204778    2.787675    8.278517    ( 0.0000,  0.0000,  0.0000)
   4 Ti     0.635819    2.840589    8.985048    ( 0.0000,  0.0000,  0.0000)
   5 Ti     5.863284    0.927962    8.948246    ( 0.0000,  0.0000,  0.0000)
   6 O      1.084245    0.960152    8.932879    ( 0.0000,  0.0000,  0.0000)
   7 O      6.331546    2.840471    8.934380    ( 0.0000,  0.0000,  0.0000)
   8 O      9.249550    2.799874    9.824868    ( 0.0000,  0.0000,  0.0000)
   9 O      4.065677    0.960502    9.843539    ( 0.0000,  0.0000,  0.0000)
  10 O      7.765556    0.918512    8.326000    ( 0.0000,  0.0000,  0.0000)
  11 O      2.557918    2.892930    8.364612    ( 0.0000,  0.0000,  0.0000)
  12 O      1.089438    2.895689   10.990970    ( 0.0000,  0.0000,  0.0000)
  13 O      6.282146    0.923175   10.950022    ( 0.0000,  0.0000,  0.0000)
  14 Ti     4.392277    0.978368   11.909048    ( 0.0000,  0.0000,  0.0000)
  15 Ti     9.566328    2.828187   11.889166    ( 0.0000,  0.0000,  0.0000)
  16 Ti     2.015941    2.852610   12.515545    ( 0.0000,  0.0000,  0.0000)
  17 Ti     7.192003    0.935427   12.475621    ( 0.0000,  0.0000,  0.0000)
  18 O      2.569706    0.972506   12.707662    ( 0.0000,  0.0000,  0.0000)
  19 O      7.710064    2.860174   12.671697    ( 0.0000,  0.0000,  0.0000)
  20 O      0.382398    2.840866   13.388721    ( 0.0000,  0.0000,  0.0000)
  21 O      5.563010    1.031869   13.337501    ( 0.0000,  0.0000,  0.0000)
  22 O      9.170570    0.949875   11.938612    ( 0.0000,  0.0000,  0.0000)
  23 O      3.957099    2.927061   11.861017    ( 0.0000,  0.0000,  0.0000)
  24 O      9.991370    6.703855    7.368943    ( 0.0000,  0.0000,  0.0000)
  25 O      4.577087    4.781638    8.034107    ( 0.0000,  0.0000,  0.0000)
  26 Ti     2.755852    4.781525    7.969748    ( 0.0000,  0.0000,  0.0000)
  27 Ti     8.187997    6.727660    8.231071    ( 0.0000,  0.0000,  0.0000)
  28 Ti     0.672754    6.691601    9.120437    ( 0.0000,  0.0000,  0.0000)
  29 Ti     6.080332    4.762402    9.073394    ( 0.0000,  0.0000,  0.0000)
  30 O      1.046974    4.772222    8.929680    ( 0.0000,  0.0000,  0.0000)
  31 O      6.352271    6.700411    8.941918    ( 0.0000,  0.0000,  0.0000)
  32 O      9.243059    6.722817    9.788596    ( 0.0000,  0.0000,  0.0000)
  33 O      7.829286    4.769571    8.311283    ( 0.0000,  0.0000,  0.0000)
  34 O      2.552542    6.657923    8.364551    ( 0.0000,  0.0000,  0.0000)
  35 O      1.068937    6.575648   11.068066    ( 0.0000,  0.0000,  0.0000)
  36 O      5.916743    4.742379   10.937479    ( 0.0000,  0.0000,  0.0000)
  37 Ti     4.398080    4.788675   12.255099    ( 0.0000,  0.0000,  0.0000)
  38 Ti     9.477979    6.666454   11.768408    ( 0.0000,  0.0000,  0.0000)
  39 Ti     2.046897    6.642981   12.734544    ( 0.0000,  0.0000,  0.0000)
  40 Ti     7.313342    4.747841   12.699723    ( 0.0000,  0.0000,  0.0000)
  41 O      2.543344    4.724224   12.949404    ( 0.0000,  0.0000,  0.0000)
  42 O      7.644549    6.641734   12.588174    ( 0.0000,  0.0000,  0.0000)
  43 O      0.350376    6.685501   13.452856    ( 0.0000,  0.0000,  0.0000)
  44 O      5.669536    4.782472   13.525224    ( 0.0000,  0.0000,  0.0000)
  45 O      9.098142    4.769695   11.810032    ( 0.0000,  0.0000,  0.0000)
  46 O      3.944888    6.569938   11.797068    ( 0.0000,  0.0000,  0.0000)
  47 O      9.964595   10.524965    7.385076    ( 0.0000,  0.0000,  0.0000)
  48 O      4.815800    8.594439    7.385821    ( 0.0000,  0.0000,  0.0000)
  49 Ti     2.938692    8.598153    8.220795    ( 0.0000,  0.0000,  0.0000)
  50 Ti     8.151981   10.570147    8.246653    ( 0.0000,  0.0000,  0.0000)
  51 Ti     0.697144   10.528620    9.089260    ( 0.0000,  0.0000,  0.0000)
  52 Ti     5.904985    8.613528    8.916619    ( 0.0000,  0.0000,  0.0000)
  53 O      1.106624    8.590064    8.968799    ( 0.0000,  0.0000,  0.0000)
  54 O      6.277899   10.520684    8.932675    ( 0.0000,  0.0000,  0.0000)
  55 O      9.239512   10.505901    9.787166    ( 0.0000,  0.0000,  0.0000)
  56 O      4.070086    8.548203    9.743966    ( 0.0000,  0.0000,  0.0000)
  57 O      7.774125    8.623501    8.290909    ( 0.0000,  0.0000,  0.0000)
  58 O      2.586216   10.493002    8.364186    ( 0.0000,  0.0000,  0.0000)
  59 O      1.079460   10.557811   11.032249    ( 0.0000,  0.0000,  0.0000)
  60 O      6.217598    8.603501   11.006157    ( 0.0000,  0.0000,  0.0000)
  61 Ti     4.265961    8.608524   11.633034    ( 0.0000,  0.0000,  0.0000)
  62 Ti     9.469123   10.584475   11.765010    ( 0.0000,  0.0000,  0.0000)
  63 Ti     2.072340   10.551021   12.686061    ( 0.0000,  0.0000,  0.0000)
  64 Ti     7.218839    8.589362   12.535294    ( 0.0000,  0.0000,  0.0000)
  65 O      2.513371    8.574059   12.420376    ( 0.0000,  0.0000,  0.0000)
  66 O      7.653897   10.520997   12.529522    ( 0.0000,  0.0000,  0.0000)
  67 O      0.386185   10.530649   13.415861    ( 0.0000,  0.0000,  0.0000)
  68 O      5.304492    8.571716   13.401410    ( 0.0000,  0.0000,  0.0000)
  69 O      9.047400    8.573397   11.850442    ( 0.0000,  0.0000,  0.0000)
  70 O      4.008046   10.507057   11.790518    ( 0.0000,  0.0000,  0.0000)
  71 O      9.941208   14.330547    7.418288    ( 0.0000,  0.0000,  0.0000)
  72 O      4.775420   12.414051    7.436483    ( 0.0000,  0.0000,  0.0000)
  73 Ti     3.008129   12.424318    8.306545    ( 0.0000,  0.0000,  0.0000)
  74 Ti     8.167684   14.360686    8.310916    ( 0.0000,  0.0000,  0.0000)
  75 Ti     0.667845   14.325759    8.963518    ( 0.0000,  0.0000,  0.0000)
  76 Ti     5.854739   12.451919    9.032147    ( 0.0000,  0.0000,  0.0000)
  77 O      1.088510   12.413214    8.932575    ( 0.0000,  0.0000,  0.0000)
  78 O      6.253488   14.340663    8.925934    ( 0.0000,  0.0000,  0.0000)
  79 O      9.235304   14.370868    9.845020    ( 0.0000,  0.0000,  0.0000)
  80 O      4.052267   12.460180    9.852855    ( 0.0000,  0.0000,  0.0000)
  81 O      7.761875   12.441132    8.367417    ( 0.0000,  0.0000,  0.0000)
  82 O      2.572719   14.330054    8.355956    ( 0.0000,  0.0000,  0.0000)
  83 O      1.102566   14.335182   10.969792    ( 0.0000,  0.0000,  0.0000)
  84 O      6.262650   12.477884   11.004076    ( 0.0000,  0.0000,  0.0000)
  85 Ti     4.422966   12.415049   11.906791    ( 0.0000,  0.0000,  0.0000)
  86 Ti     9.575664   14.368157   11.921925    ( 0.0000,  0.0000,  0.0000)
  87 Ti     2.045509   14.339390   12.480502    ( 0.0000,  0.0000,  0.0000)
  88 Ti     7.198275   12.469318   12.635926    ( 0.0000,  0.0000,  0.0000)
  89 O      2.574944   12.434645   12.708346    ( 0.0000,  0.0000,  0.0000)
  90 O      7.733843   14.354080   12.716542    ( 0.0000,  0.0000,  0.0000)
  91 O      0.430297   14.325613   13.370592    ( 0.0000,  0.0000,  0.0000)
  92 O      5.540034   12.392376   13.393914    ( 0.0000,  0.0000,  0.0000)
  93 O      9.179345   12.435005   11.850660    ( 0.0000,  0.0000,  0.0000)
  94 O      4.026849   14.340544   11.940643    ( 0.0000,  0.0000,  0.0000)
  95 V      4.002865    8.596960   14.664049    ( 0.0000,  0.0000,  0.0000)
  96 O      3.002702   10.092201   14.494463    ( 0.0000,  0.0000,  0.0000)
  97 O      3.012137    7.085808   14.516829    ( 0.0000,  0.0000,  0.0000)
  98 O      4.616375    8.611587   16.128258    ( 0.0000,  0.0000,  0.0000)
  99 V      9.323069    8.580639   14.555101    ( 0.0000,  0.0000,  0.0000)
 100 O     10.954983    9.267219   14.595504    ( 0.0000,  0.0000,  0.0000)
 101 O      7.877855    8.714295   14.529402    ( 0.0000,  0.0000,  0.0000)
 102 O      9.826921    8.701356   16.105595    ( 0.0000,  0.0000,  0.0000)
 103 H      7.740504    8.807285   15.457350    ( 0.0000,  0.0000,  0.0000)
 104 H      2.938628    8.659692   15.284248    ( 0.0000,  0.0000,  0.0000)

Unit cell:
           periodic     x           y           z      points  spacing
  1. axis:    yes   10.341746    0.000000    0.000000    54     0.1915
  2. axis:    yes   -0.000000   15.289380    0.000000    80     0.1911
  3. axis:    yes    0.000000    0.000000   23.497201   125     0.1880

  Lengths:  10.341746  15.289380  23.497201
  Angles:   90.000000  90.000000  90.000000

Effective grid spacing dv^(1/3) = 0.1902

                     log10-error:    total        iterations:
           time      wfs    density  energy       fermi  poisson
iter:   1  10:53:23  -0.08   +inf  -964.824419    2             
iter:   2  10:53:55  -0.97  -0.95  -919.873307    33            
iter:   3  10:54:25  +0.06  -1.00  -846.045597    34            
iter:   4  10:54:57  -0.21  -1.22  -841.450962    3             
iter:   5  10:55:28  -0.74  -1.32  -842.496538    2             
iter:   6  10:55:59  -1.16  -1.36  -842.112090    31            
iter:   7  10:56:31  -1.93  -1.41  -842.082178    4             
iter:   8  10:57:02  -1.33  -1.45  -845.582141    4             
iter:   9  10:57:34  -2.39  -1.57  -842.708295    4             
iter:  10  10:58:05  -1.91  -1.63  -842.241126    3             
iter:  11  10:58:36  -1.58  -1.82  -841.910353    5             
iter:  12  10:59:08  -2.12  -2.06  -841.743353    4             
iter:  13  10:59:39  -2.63  -2.18  -841.414180    2             
iter:  14  11:00:11  -3.18  -2.22  -841.334458    3             
iter:  15  11:00:43  -2.68  -2.30  -841.281801    4             
iter:  16  11:01:14  -3.17  -2.45  -841.271338    3             
iter:  17  11:01:46  -3.39  -2.52  -841.245642    3             
iter:  18  11:02:17  -3.92  -2.65  -841.234965    3             
iter:  19  11:02:48  -4.14  -2.72  -841.227433    3             
iter:  20  11:03:20  -3.72  -2.82  -841.227702    3             
iter:  21  11:03:51  -4.21  -3.01  -841.228699    3             
iter:  22  11:04:22  -4.75  -3.09  -841.228164    3             
iter:  23  11:04:53  -4.44  -3.17  -841.226814    3             
iter:  24  11:05:25  -5.01  -3.32  -841.227444    3             
iter:  25  11:05:56  -5.09  -3.40  -841.227860    3             
iter:  26  11:06:27  -5.43  -3.48  -841.227613    2             
iter:  27  11:06:59  -5.33  -3.61  -841.228185    2             
iter:  28  11:07:30  -6.07  -3.72  -841.227611    2             
iter:  29  11:08:01  -6.17  -3.75  -841.228044    2             
iter:  30  11:08:33  -6.16  -3.81  -841.228014    2             
iter:  31  11:09:05  -6.36  -3.87  -841.227949    2             
iter:  32  11:09:36  -6.42  -3.91  -841.227918    3             
iter:  33  11:10:08  -6.77  -3.96  -841.227901    2             
iter:  34  11:10:40  -6.85  -4.00  -841.228275    2             
iter:  35  11:11:11  -6.81  -4.09  -841.227983    2             
iter:  36  11:11:42  -6.83  -4.22  -841.228057    2             
iter:  37  11:12:15  -7.51  -4.38  -841.228097    2             

Converged after 37 iterations.

Dipole moment: (-1.212919, 0.222313, -0.971740) |e|*Ang

Energy contributions relative to reference atoms: (reference = -935653.237240)

Kinetic:       +684.868450
Potential:     -827.210906
External:        +0.000000
XC:            -704.640443
Entropy (-ST):   -0.816038
Local:           +6.162822
--------------------------
Free energy:   -841.636115
Extrapolated:  -841.228097

Fermi level: -1.33914

Showing all kpts
 Kpt  Band  Eigenvalues  Occupancy
  0   411     -1.34433    0.51299
  0   412     -1.32194    0.45713
  0   413     -1.27598    0.34716
  0   414     -1.24254    0.27568

  1   411     -1.34274    0.50900
  1   412     -1.32088    0.45450
  1   413     -1.27537    0.34578
  1   414     -1.24614    0.28293



Forces in eV/Ang:
  0 O    -1.52714   -0.08241    1.21653
  1 O    -1.10456    0.01242    1.21711
  2 Ti    2.53140   -0.05894    1.15534
  3 Ti    2.31142    0.48886    0.61445
  4 Ti    0.08406    0.15045   -1.40742
  5 Ti   -1.68486    0.23552   -1.17863
  6 O     0.28222   -0.10410   -0.12073
  7 O     0.29970    0.03854   -0.29174
  8 O    -1.23644   -0.05888    0.09600
  9 O    -0.71691    0.00409   -0.26626
 10 O     0.20271    0.47722   -1.07774
 11 O     0.26834   -0.18581   -0.91234
 12 O    -0.19980   -0.05337   -0.09199
 13 O     0.06742    0.03739    0.12758
 14 Ti   -0.14485   -0.00422    0.07184
 15 Ti    0.82533    0.17657    0.75188
 16 Ti   -0.00906    0.33259    0.32269
 17 Ti   -0.38373    0.25944   -0.00251
 18 O    -0.02272   -0.11212    0.04010
 19 O     0.06941   -0.08058    0.14621
 20 O    -0.45587    0.00812   -0.78647
 21 O     0.19936   -0.04971    0.04168
 22 O     0.09821    0.18465   -0.06069
 23 O     0.13176   -0.20124   -0.01545
 24 O    -1.77895   -0.04626    2.01943
 25 O    -0.29749   -0.04399    0.06633
 26 Ti    0.05361    0.12626    0.62137
 27 Ti    3.45245    0.32231   -0.06109
 28 Ti    0.11444    0.08393   -1.91763
 29 Ti   -0.48227    0.22374    0.61398
 30 O     0.18945   -0.13238   -0.10436
 31 O    -0.01665   -0.32958   -0.12641
 32 O    -1.44554    0.05068    0.83765
 33 O    -0.00040   -0.30142   -0.89771
 34 O     0.29281    0.08137   -0.99817
 35 O    -0.79593    0.02306   -0.51214
 36 O     0.68169   -0.01070    0.96123
 37 Ti   -0.25755    0.30996   -0.41111
 38 Ti    2.25654   -0.53548    0.57663
 39 Ti    0.47169    0.46945    1.49523
 40 Ti   -1.42783   -0.21923   -1.91393
 41 O     0.09233   -0.31126   -0.19215
 42 O     0.11231    0.18679    0.59564
 43 O    -2.12712    0.67974   -0.48938
 44 O     0.32820   -0.00104    0.60430
 45 O     0.10769   -0.20602    0.34184
 46 O     0.17340   -0.26600    0.06977
 47 O    -1.66287    0.05062    1.93307
 48 O    -1.11223   -0.03216    1.17072
 49 Ti    2.67116   -0.00046    1.18845
 50 Ti    3.56235   -0.33406    0.21959
 51 Ti   -0.63381   -0.04182   -1.93122
 52 Ti   -1.39646    0.08648   -1.26386
 53 O     0.26634   -0.05447   -0.00000
 54 O     0.07780    0.13394   -0.05341
 55 O    -1.23696    0.01620    0.80856
 56 O    -0.95634    0.02017   -0.40901
 57 O     0.22604   -0.06055   -0.92044
 58 O     0.28100    0.01196   -0.91409
 59 O    -0.58140   -0.06363   -0.08117
 60 O     0.33272   -0.10482    0.12510
 61 Ti   -0.14309   -0.10348    0.79748
 62 Ti    1.59019    0.17589   -0.35017
 63 Ti    1.52549   -0.65789    0.58482
 64 Ti   -2.88249    0.22581   -1.60644
 65 O     0.08206    0.05594   -0.70903
 66 O     0.02358    0.41282    0.79117
 67 O    -1.62251    0.44499   -0.82866
 68 O     1.97480   -0.05048   -2.49372
 69 O     0.50056    0.21896    1.02257
 70 O     0.10016    0.29362    0.08533
 71 O    -1.25305    0.05496    1.28841
 72 O    -1.22909    0.08228    1.54300
 73 Ti    2.64409   -0.12785    0.94533
 74 Ti    2.93763   -0.95533    0.83526
 75 Ti   -0.81899   -0.23869   -1.41242
 76 Ti   -1.17963   -0.53227   -1.65862
 77 O     0.21770    0.27641   -0.12406
 78 O     0.23560    0.06883   -0.23127
 79 O    -0.82041   -0.00174   -0.03092
 80 O    -0.65413   -0.00941   -0.18177
 81 O     0.03921    0.24393   -0.79949
 82 O     0.22394    0.29078   -0.96890
 83 O    -0.09847    0.11103    0.01489
 84 O     0.49680    0.09560    1.19249
 85 Ti   -0.41416   -0.25443   -0.09753
 86 Ti    0.80525   -0.47587    0.16798
 87 Ti    0.08796   -0.25615    0.10106
 88 Ti   -1.05950   -0.31715   -2.04327
 89 O    -0.01382    0.32024   -0.04854
 90 O    -0.13235   -0.27248    0.41613
 91 O    -0.30719    0.08071   -0.39850
 92 O     0.71761    0.03468    0.21829
 93 O    -0.23772    0.24160    0.54455
 94 O    -0.00674    0.32116    0.02361
 95 V     8.95604   -0.89346   -4.86281
 96 O     0.25661    0.10686   -0.55911
 97 O    -0.08954    0.29600   -0.61208
 98 O     0.62951    0.01986    1.12754
 99 V    24.41283   -5.07778    1.54312
100 O     1.29642    2.26699   -1.31411
101 O   -20.67423    2.83567   -2.17147
102 O    -2.02539   -1.61796    1.07719
103 H    -1.97461    0.32093    2.91221
104 H   -11.36446    0.73272    5.58679

System changes: positions 

Initializing position-dependent things.

Density initialized from wave functions
          .------------------------.  
         /|                        |  
        / |                        |  
       /  |                        |  
      /   |                        |  
     /    |                        |  
    /     |                        |  
   /      |                        |  
  /       |                        |  
 *        |                        |  
 |        |                        |  
 |        |                        |  
 |        |                        |  
 |        O      O            O    |  
 |        |  HOi      O  H  O      |  
 |      O |    OV  O     OTi V   Ti|  
 |        | Oi     Oi     O    O   |  
 |    O   |      O     Ti     TiO  |  
 |        TiO     O         O      |  
 |        OTi   TiO  O O O   Ti    |  
 |  O  O  |O  TiTi   Tii   OTiO  O |  
 |      Tii    OO    OO   O        |  
 |      OO| OO    OTii    Tii      |  
 |   O Ti | Tii     O   OO     O   |  
 |    O   |O     OOTi    Oi        |  
 |  Ti    TO   O  O    O     O     |  
 |  O    O|     Ti    Ti           |  
 |       Ti         O      O       |  
 |        |  O                     |  
 |        .------------------------.  
 |       /                        /   
 |      /                        /    
 |     /                        /     
 |    /                        /      
 |   /                        /       
 |  /                        /        
 | /                        /         
 |/                        /          
 *------------------------*           

Positions:
   0 O      9.980185    2.844521    7.396465    ( 0.0000,  0.0000,  0.0000)
   1 O      4.767913    0.962098    7.420913    ( 0.0000,  0.0000,  0.0000)
   2 Ti     2.985668    0.961254    8.317936    ( 0.0000,  0.0000,  0.0000)
   3 Ti     8.204778    2.787675    8.278517    ( 0.0000,  0.0000,  0.0000)
   4 Ti     0.635819    2.840589    8.985048    ( 0.0000,  0.0000,  0.0000)
   5 Ti     5.863284    0.927962    8.948246    ( 0.0000,  0.0000,  0.0000)
   6 O      1.084245    0.960152    8.932879    ( 0.0000,  0.0000,  0.0000)
   7 O      6.331546    2.840471    8.934380    ( 0.0000,  0.0000,  0.0000)
   8 O      9.249550    2.799874    9.824868    ( 0.0000,  0.0000,  0.0000)
   9 O      4.065677    0.960502    9.843539    ( 0.0000,  0.0000,  0.0000)
  10 O      7.765556    0.918512    8.326000    ( 0.0000,  0.0000,  0.0000)
  11 O      2.557918    2.892930    8.364612    ( 0.0000,  0.0000,  0.0000)
  12 O      1.089189    2.895623   10.990855    ( 0.0000,  0.0000,  0.0000)
  13 O      6.282230    0.923221   10.950181    ( 0.0000,  0.0000,  0.0000)
  14 Ti     4.392097    0.978362   11.909137    ( 0.0000,  0.0000,  0.0000)
  15 Ti     9.567355    2.828406   11.890100    ( 0.0000,  0.0000,  0.0000)
  16 Ti     2.015929    2.853024   12.515946    ( 0.0000,  0.0000,  0.0000)
  17 Ti     7.191525    0.935749   12.475618    ( 0.0000,  0.0000,  0.0000)
  18 O      2.569677    0.972367   12.707711    ( 0.0000,  0.0000,  0.0000)
  19 O      7.710151    2.860073   12.671881    ( 0.0000,  0.0000,  0.0000)
  20 O      0.381831    2.840876   13.387742    ( 0.0000,  0.0000,  0.0000)
  21 O      5.563259    1.031808   13.337553    ( 0.0000,  0.0000,  0.0000)
  22 O      9.170692    0.950105   11.938535    ( 0.0000,  0.0000,  0.0000)
  23 O      3.957263    2.926810   11.860999    ( 0.0000,  0.0000,  0.0000)
  24 O      9.991370    6.703855    7.368943    ( 0.0000,  0.0000,  0.0000)
  25 O      4.577087    4.781638    8.034107    ( 0.0000,  0.0000,  0.0000)
  26 Ti     2.755852    4.781525    7.969748    ( 0.0000,  0.0000,  0.0000)
  27 Ti     8.187997    6.727660    8.231071    ( 0.0000,  0.0000,  0.0000)
  28 Ti     0.672754    6.691601    9.120437    ( 0.0000,  0.0000,  0.0000)
  29 Ti     6.080332    4.762402    9.073394    ( 0.0000,  0.0000,  0.0000)
  30 O      1.046974    4.772222    8.929680    ( 0.0000,  0.0000,  0.0000)
  31 O      6.352271    6.700411    8.941918    ( 0.0000,  0.0000,  0.0000)
  32 O      9.243059    6.722817    9.788596    ( 0.0000,  0.0000,  0.0000)
  33 O      7.829286    4.769571    8.311283    ( 0.0000,  0.0000,  0.0000)
  34 O      2.552542    6.657923    8.364551    ( 0.0000,  0.0000,  0.0000)
  35 O      1.067946    6.575673   11.067427    ( 0.0000,  0.0000,  0.0000)
  36 O      5.917588    4.742366   10.938675    ( 0.0000,  0.0000,  0.0000)
  37 Ti     4.397762    4.789061   12.254585    ( 0.0000,  0.0000,  0.0000)
  38 Ti     9.480784    6.665785   11.769116    ( 0.0000,  0.0000,  0.0000)
  39 Ti     2.047482    6.643565   12.736400    ( 0.0000,  0.0000,  0.0000)
  40 Ti     7.311571    4.747567   12.697356    ( 0.0000,  0.0000,  0.0000)
  41 O      2.543459    4.723837   12.949162    ( 0.0000,  0.0000,  0.0000)
  42 O      7.644688    6.641970   12.588911    ( 0.0000,  0.0000,  0.0000)
  43 O      0.347728    6.686347   13.452245    ( 0.0000,  0.0000,  0.0000)
  44 O      5.669944    4.782471   13.525978    ( 0.0000,  0.0000,  0.0000)
  45 O      9.098275    4.769439   11.810455    ( 0.0000,  0.0000,  0.0000)
  46 O      3.945105    6.569608   11.797156    ( 0.0000,  0.0000,  0.0000)
  47 O      9.964595   10.524965    7.385076    ( 0.0000,  0.0000,  0.0000)
  48 O      4.815800    8.594439    7.385821    ( 0.0000,  0.0000,  0.0000)
  49 Ti     2.938692    8.598153    8.220795    ( 0.0000,  0.0000,  0.0000)
  50 Ti     8.151981   10.570147    8.246653    ( 0.0000,  0.0000,  0.0000)
  51 Ti     0.697144   10.528620    9.089260    ( 0.0000,  0.0000,  0.0000)
  52 Ti     5.904985    8.613528    8.916619    ( 0.0000,  0.0000,  0.0000)
  53 O      1.106624    8.590064    8.968799    ( 0.0000,  0.0000,  0.0000)
  54 O      6.277899   10.520684    8.932675    ( 0.0000,  0.0000,  0.0000)
  55 O      9.239512   10.505901    9.787166    ( 0.0000,  0.0000,  0.0000)
  56 O      4.070086    8.548203    9.743966    ( 0.0000,  0.0000,  0.0000)
  57 O      7.774125    8.623501    8.290909    ( 0.0000,  0.0000,  0.0000)
  58 O      2.586216   10.493002    8.364186    ( 0.0000,  0.0000,  0.0000)
  59 O      1.078735   10.557730   11.032149    ( 0.0000,  0.0000,  0.0000)
  60 O      6.218013    8.603375   11.006314    ( 0.0000,  0.0000,  0.0000)
  61 Ti     4.265781    8.608395   11.634025    ( 0.0000,  0.0000,  0.0000)
  62 Ti     9.471107   10.584694   11.764580    ( 0.0000,  0.0000,  0.0000)
  63 Ti     2.074239   10.550201   12.686793    ( 0.0000,  0.0000,  0.0000)
  64 Ti     7.215250    8.589646   12.533290    ( 0.0000,  0.0000,  0.0000)
  65 O      2.513472    8.574128   12.419493    ( 0.0000,  0.0000,  0.0000)
  66 O      7.653927   10.521510   12.530516    ( 0.0000,  0.0000,  0.0000)
  67 O      0.384164   10.531203   13.414830    ( 0.0000,  0.0000,  0.0000)
  68 O      5.306952    8.571655   13.398306    ( 0.0000,  0.0000,  0.0000)
  69 O      9.048019    8.573672   11.851714    ( 0.0000,  0.0000,  0.0000)
  70 O      4.008169   10.507422   11.790623    ( 0.0000,  0.0000,  0.0000)
  71 O      9.941208   14.330547    7.418288    ( 0.0000,  0.0000,  0.0000)
  72 O      4.775420   12.414051    7.436483    ( 0.0000,  0.0000,  0.0000)
  73 Ti     3.008129   12.424318    8.306545    ( 0.0000,  0.0000,  0.0000)
  74 Ti     8.167684   14.360686    8.310916    ( 0.0000,  0.0000,  0.0000)
  75 Ti     0.667845   14.325759    8.963518    ( 0.0000,  0.0000,  0.0000)
  76 Ti     5.854739   12.451919    9.032147    ( 0.0000,  0.0000,  0.0000)
  77 O      1.088510   12.413214    8.932575    ( 0.0000,  0.0000,  0.0000)
  78 O      6.253488   14.340663    8.925934    ( 0.0000,  0.0000,  0.0000)
  79 O      9.235304   14.370868    9.845020    ( 0.0000,  0.0000,  0.0000)
  80 O      4.052267   12.460180    9.852855    ( 0.0000,  0.0000,  0.0000)
  81 O      7.761875   12.441132    8.367417    ( 0.0000,  0.0000,  0.0000)
  82 O      2.572719   14.330054    8.355956    ( 0.0000,  0.0000,  0.0000)
  83 O      1.102443   14.335320   10.969811    ( 0.0000,  0.0000,  0.0000)
  84 O      6.263269   12.478002   11.005558    ( 0.0000,  0.0000,  0.0000)
  85 Ti     4.422447   12.414732   11.906668    ( 0.0000,  0.0000,  0.0000)
  86 Ti     9.576666   14.367565   11.922135    ( 0.0000,  0.0000,  0.0000)
  87 Ti     2.045618   14.339072   12.480628    ( 0.0000,  0.0000,  0.0000)
  88 Ti     7.196953   12.468924   12.633373    ( 0.0000,  0.0000,  0.0000)
  89 O      2.574926   12.435044   12.708285    ( 0.0000,  0.0000,  0.0000)
  90 O      7.733677   14.353739   12.717059    ( 0.0000,  0.0000,  0.0000)
  91 O      0.429914   14.325714   13.370096    ( 0.0000,  0.0000,  0.0000)
  92 O      5.540927   12.392418   13.394183    ( 0.0000,  0.0000,  0.0000)
  93 O      9.179047   12.435304   11.851342    ( 0.0000,  0.0000,  0.0000)
  94 O      4.026840   14.340944   11.940671    ( 0.0000,  0.0000,  0.0000)
  95 V      4.014010    8.595855   14.657996    ( 0.0000,  0.0000,  0.0000)
  96 O      3.003023   10.092335   14.493765    ( 0.0000,  0.0000,  0.0000)
  97 O      3.012024    7.086178   14.516069    ( 0.0000,  0.0000,  0.0000)
  98 O      4.617160    8.611616   16.129662    ( 0.0000,  0.0000,  0.0000)
  99 V      9.353446    8.574241   14.557079    ( 0.0000,  0.0000,  0.0000)
 100 O     10.956389    9.269679   14.593838    ( 0.0000,  0.0000,  0.0000)
 101 O      7.852166    8.717764   14.526702    ( 0.0000,  0.0000,  0.0000)
 102 O      9.824405    8.699241   16.106948    ( 0.0000,  0.0000,  0.0000)
 103 H      7.738091    8.807675   15.460929    ( 0.0000,  0.0000,  0.0000)
 104 H      2.924479    8.660493   15.291202    ( 0.0000,  0.0000,  0.0000)

Unit cell:
           periodic     x           y           z      points  spacing
  1. axis:    yes   10.341746    0.000000    0.000000    54     0.1915
  2. axis:    yes   -0.000000   15.289380    0.000000    80     0.1911
  3. axis:    yes    0.000000    0.000000   23.497201   125     0.1880

  Lengths:  10.341746  15.289380  23.497201
  Angles:   90.000000  90.000000  90.000000

Effective grid spacing dv^(1/3) = 0.1902

                     log10-error:    total        iterations:
           time      wfs    density  energy       fermi  poisson
iter:   1  11:14:10  -2.38   +inf  -842.892231    3             
iter:   2  11:14:41  -3.34  -3.08  -842.868819    3             
iter:   3  11:15:12  -3.97  -3.11  -842.859531    3             
iter:   4  11:15:43  -3.83  -3.22  -842.833808    3             
iter:   5  11:16:14  -3.72  -3.30  -842.815214    3             
iter:   6  11:16:45  -4.30  -3.42  -842.813927    3             
iter:   7  11:17:17  -4.68  -3.50  -842.813023    2             
iter:   8  11:17:48  -4.49  -3.61  -842.812091    2             
iter:   9  11:18:19  -5.18  -3.75  -842.810818    3             
iter:  10  11:18:50  -5.43  -3.78  -842.811180    3             
iter:  11  11:19:21  -4.86  -3.88  -842.810090    3             
iter:  12  11:19:53  -5.74  -4.15  -842.810191    2             
iter:  13  11:20:24  -6.54  -4.23  -842.810160    2             
iter:  14  11:20:55  -6.55  -4.24  -842.810226    2             
iter:  15  11:21:26  -5.59  -4.32  -842.810443    3             
iter:  16  11:21:57  -6.63  -4.45  -842.810241    2             
iter:  17  11:22:28  -6.65  -4.52  -842.810310    2             
iter:  18  11:23:00  -6.77  -4.58  -842.810202    2             
iter:  19  11:23:32  -7.03  -4.65  -842.810304    2             
iter:  20  11:24:03  -7.40  -4.81  -842.810256    2             

Converged after 20 iterations.

Dipole moment: (-1.062095, 0.205787, -0.956968) |e|*Ang

Energy contributions relative to reference atoms: (reference = -935653.237240)

Kinetic:       +677.077471
Potential:     -821.920365
External:        +0.000000
XC:            -703.686857
Entropy (-ST):   -0.821478
Local:           +6.130234
--------------------------
Free energy:   -843.220995
Extrapolated:  -842.810256

Fermi level: -1.33271

Showing all kpts
 Kpt  Band  Eigenvalues  Occupancy
  0   411     -1.34479    0.53016
  0   412     -1.30769    0.43777
  0   413     -1.26024    0.32634
  0   414     -1.23512    0.27369

  1   411     -1.34374    0.52754
  1   412     -1.30573    0.43295
  1   413     -1.25966    0.32507
  1   414     -1.23879    0.28105



Forces in eV/Ang:
  0 O    -1.52496   -0.08182    1.20574
  1 O    -1.10122    0.01193    1.20803
  2 Ti    2.52415   -0.05832    1.14943
  3 Ti    2.31617    0.48608    0.61278
  4 Ti    0.08054    0.14920   -1.40887
  5 Ti   -1.68338    0.23491   -1.17474
  6 O     0.28008   -0.10479   -0.11650
  7 O     0.29199    0.04582   -0.28420
  8 O    -1.23848   -0.05687    0.10058
  9 O    -0.71571    0.00393   -0.25579
 10 O     0.20283    0.47660   -1.07835
 11 O     0.27240   -0.18549   -0.91017
 12 O    -0.18247   -0.04934   -0.07944
 13 O     0.05864    0.03846    0.10940
 14 Ti   -0.13980   -0.01085    0.06438
 15 Ti    0.79100    0.15698    0.71887
 16 Ti   -0.00144    0.30124    0.29788
 17 Ti   -0.34991    0.23555    0.00399
 18 O    -0.03144   -0.10065    0.04546
 19 O     0.06247   -0.06533    0.15000
 20 O    -0.44020    0.01315   -0.74277
 21 O     0.18419   -0.04609    0.05527
 22 O     0.09843    0.18529   -0.06260
 23 O     0.12746   -0.18164   -0.01690
 24 O    -1.77503   -0.04596    2.01271
 25 O    -0.28271   -0.04324    0.06770
 26 Ti    0.04870    0.12450    0.61689
 27 Ti    3.45897    0.32258   -0.06142
 28 Ti    0.10569    0.08567   -1.94303
 29 Ti   -0.48241    0.21911    0.60407
 30 O     0.18574   -0.13002   -0.09821
 31 O    -0.02573   -0.32977   -0.11621
 32 O    -1.44843    0.04805    0.84390
 33 O    -0.00300   -0.29914   -0.89752
 34 O     0.29701    0.08238   -0.99388
 35 O    -0.75473    0.02019   -0.44242
 36 O     0.68210   -0.00923    0.96386
 37 Ti   -0.21860    0.27255   -0.39017
 38 Ti    2.15027   -0.49882    0.52333
 39 Ti    0.50216    0.44729    1.42867
 40 Ti   -1.41469   -0.20638   -1.92372
 41 O     0.07323   -0.27142   -0.17793
 42 O     0.12641    0.17421    0.55927
 43 O    -2.13021    0.73520   -0.39494
 44 O     0.28708   -0.00003    0.59163
 45 O     0.11846   -0.19387    0.33532
 46 O     0.15553   -0.24017    0.07371
 47 O    -1.66205    0.04855    1.91907
 48 O    -1.10430   -0.03174    1.16741
 49 Ti    2.65593    0.00020    1.17591
 50 Ti    3.57984   -0.33326    0.22508
 51 Ti   -0.64492   -0.03824   -1.91937
 52 Ti   -1.39812    0.08910   -1.28205
 53 O     0.26571   -0.05970    0.00387
 54 O     0.06763    0.13268   -0.04341
 55 O    -1.23957    0.02173    0.77984
 56 O    -0.94824    0.02047   -0.36925
 57 O     0.22408   -0.06156   -0.92015
 58 O     0.28843    0.01420   -0.91438
 59 O    -0.53938   -0.07747   -0.08388
 60 O     0.28793   -0.10537    0.07888
 61 Ti   -0.16779   -0.09542    0.68668
 62 Ti    1.56432    0.17198   -0.30007
 63 Ti    1.39156   -0.58167    0.54774
 64 Ti   -2.60220    0.26344   -1.35915
 65 O     0.07372    0.02427   -0.68737
 66 O     0.02325    0.41734    0.72283
 67 O    -1.64262    0.65051   -1.06172
 68 O     1.90740   -0.05637   -2.48275
 69 O     0.50091    0.19657    0.98358
 70 O     0.09922    0.26149    0.08869
 71 O    -1.25242    0.05464    1.27752
 72 O    -1.21965    0.08190    1.53853
 73 Ti    2.62719   -0.12865    0.93613
 74 Ti    2.94147   -0.95363    0.83442
 75 Ti   -0.82134   -0.23938   -1.40960
 76 Ti   -1.17782   -0.52865   -1.66364
 77 O     0.21869    0.27989   -0.12213
 78 O     0.22963    0.06204   -0.22465
 79 O    -0.82175   -0.00164   -0.03160
 80 O    -0.64552   -0.01083   -0.16280
 81 O     0.03630    0.24468   -0.79816
 82 O     0.22914    0.28892   -0.96874
 83 O    -0.08927    0.10918    0.01159
 84 O     0.47052    0.09741    1.12855
 85 Ti   -0.39998   -0.22155   -0.07808
 86 Ti    0.76281   -0.48150    0.16175
 87 Ti    0.08739   -0.24815    0.09765
 88 Ti   -0.99297   -0.33375   -1.99515
 89 O    -0.00615    0.30563   -0.04308
 90 O    -0.13192   -0.25516    0.41021
 91 O    -0.29133    0.08107   -0.37231
 92 O     0.66520    0.03192    0.21457
 93 O    -0.24058    0.26808    0.52224
 94 O    -0.00434    0.30925    0.01979
 95 V     7.56793   -0.78372   -3.92135
 96 O     0.33427   -0.03350   -0.50492
 97 O    -0.03334    0.37216   -0.59557
 98 O     0.54709    0.01116    0.94139
 99 V    18.63169   -4.46837    1.45826
100 O     1.59294    1.98444   -1.32386
101 O   -15.07929    2.26506   -1.90666
102 O    -2.10624   -1.68501    1.38348
103 H    -1.83012    0.28031    2.56546
104 H   -10.09155    0.68937    4.83735

System changes: positions 

Initializing position-dependent things.

Density initialized from wave functions
          .------------------------.  
         /|                        |  
        / |                        |  
       /  |                        |  
      /   |                        |  
     /    |                        |  
    /     |                        |  
   /      |                        |  
  /       |                        |  
 *        |                        |  
 |        |                        |  
 |        |                        |  
 |        |                        |  
 |        O      O            O    |  
 |        |  HOi      O  H  O      |  
 |      O |    OV  O     OTi V   Ti|  
 |        | Oi     Oi     O    O   |  
 |    O   |      O     Ti     TiO  |  
 |        TiO     O         O      |  
 |        OTi   TiO  O O O   Ti    |  
 |  O  O  |O  TiTi   Tii   OTiO  O |  
 |      Tii    OO    OO   O        |  
 |      OO| OO    OTii    Tii      |  
 |   O Ti | Tii     O   OO     O   |  
 |    O   |O     OOTi    Oi        |  
 |  Ti    TO   O  O    O     O     |  
 |  O    O|     Ti    Ti           |  
 |       Ti         O      O       |  
 |        |  O                     |  
 |        .------------------------.  
 |       /                        /   
 |      /                        /    
 |     /                        /     
 |    /                        /      
 |   /                        /       
 |  /                        /        
 | /                        /         
 |/                        /          
 *------------------------*           

Positions:
   0 O      9.980185    2.844521    7.396465    ( 0.0000,  0.0000,  0.0000)
   1 O      4.767913    0.962098    7.420913    ( 0.0000,  0.0000,  0.0000)
   2 Ti     2.985668    0.961254    8.317936    ( 0.0000,  0.0000,  0.0000)
   3 Ti     8.204778    2.787675    8.278517    ( 0.0000,  0.0000,  0.0000)
   4 Ti     0.635819    2.840589    8.985048    ( 0.0000,  0.0000,  0.0000)
   5 Ti     5.863284    0.927962    8.948246    ( 0.0000,  0.0000,  0.0000)
   6 O      1.084245    0.960152    8.932879    ( 0.0000,  0.0000,  0.0000)
   7 O      6.331546    2.840471    8.934380    ( 0.0000,  0.0000,  0.0000)
   8 O      9.249550    2.799874    9.824868    ( 0.0000,  0.0000,  0.0000)
   9 O      4.065677    0.960502    9.843539    ( 0.0000,  0.0000,  0.0000)
  10 O      7.765556    0.918512    8.326000    ( 0.0000,  0.0000,  0.0000)
  11 O      2.557918    2.892930    8.364612    ( 0.0000,  0.0000,  0.0000)
  12 O      1.088549    2.895440   10.990604    ( 0.0000,  0.0000,  0.0000)
  13 O      6.282413    0.923386   10.950504    ( 0.0000,  0.0000,  0.0000)
  14 Ti     4.391545    0.978265   11.909345    ( 0.0000,  0.0000,  0.0000)
  15 Ti     9.570427    2.828925   11.892876    ( 0.0000,  0.0000,  0.0000)
  16 Ti     2.015977    2.854057   12.517011    ( 0.0000,  0.0000,  0.0000)
  17 Ti     7.190297    0.936563   12.475673    ( 0.0000,  0.0000,  0.0000)
  18 O      2.569487    0.972025   12.707934    ( 0.0000,  0.0000,  0.0000)
  19 O      7.710357    2.859909   12.672518    ( 0.0000,  0.0000,  0.0000)
  20 O      0.380099    2.840962   13.384932    ( 0.0000,  0.0000,  0.0000)
  21 O      5.563920    1.031636   13.337872    ( 0.0000,  0.0000,  0.0000)
  22 O      9.171106    0.950885   11.938259    ( 0.0000,  0.0000,  0.0000)
  23 O      3.957767    2.926191   11.860900    ( 0.0000,  0.0000,  0.0000)
  24 O      9.991370    6.703855    7.368943    ( 0.0000,  0.0000,  0.0000)
  25 O      4.577087    4.781638    8.034107    ( 0.0000,  0.0000,  0.0000)
  26 Ti     2.755852    4.781525    7.969748    ( 0.0000,  0.0000,  0.0000)
  27 Ti     8.187997    6.727660    8.231071    ( 0.0000,  0.0000,  0.0000)
  28 Ti     0.672754    6.691601    9.120437    ( 0.0000,  0.0000,  0.0000)
  29 Ti     6.080332    4.762402    9.073394    ( 0.0000,  0.0000,  0.0000)
  30 O      1.046974    4.772222    8.929680    ( 0.0000,  0.0000,  0.0000)
  31 O      6.352271    6.700411    8.941918    ( 0.0000,  0.0000,  0.0000)
  32 O      9.243059    6.722817    9.788596    ( 0.0000,  0.0000,  0.0000)
  33 O      7.829286    4.769571    8.311283    ( 0.0000,  0.0000,  0.0000)
  34 O      2.552542    6.657923    8.364551    ( 0.0000,  0.0000,  0.0000)
  35 O      1.065079    6.575749   11.066071    ( 0.0000,  0.0000,  0.0000)
  36 O      5.920467    4.742336   10.942728    ( 0.0000,  0.0000,  0.0000)
  37 Ti     4.397111    4.789931   12.253098    ( 0.0000,  0.0000,  0.0000)
  38 Ti     9.489057    6.663953   11.770956    ( 0.0000,  0.0000,  0.0000)
  39 Ti     2.049807    6.645279   12.741918    ( 0.0000,  0.0000,  0.0000)
  40 Ti     7.305709    4.746784   12.689140    ( 0.0000,  0.0000,  0.0000)
  41 O      2.543628    4.722979   12.948521    ( 0.0000,  0.0000,  0.0000)
  42 O      7.645323    6.642609   12.591016    ( 0.0000,  0.0000,  0.0000)
  43 O      0.338788    6.689801   13.451228    ( 0.0000,  0.0000,  0.0000)
  44 O      5.670858    4.782475   13.528351    ( 0.0000,  0.0000,  0.0000)
  45 O      9.098850    4.768710   11.811815    ( 0.0000,  0.0000,  0.0000)
  46 O      3.945627    6.568777   11.797482    ( 0.0000,  0.0000,  0.0000)
  47 O      9.964595   10.524965    7.385076    ( 0.0000,  0.0000,  0.0000)
  48 O      4.815800    8.594439    7.385821    ( 0.0000,  0.0000,  0.0000)
  49 Ti     2.938692    8.598153    8.220795    ( 0.0000,  0.0000,  0.0000)
  50 Ti     8.151981   10.570147    8.246653    ( 0.0000,  0.0000,  0.0000)
  51 Ti     0.697144   10.528620    9.089260    ( 0.0000,  0.0000,  0.0000)
  52 Ti     5.904985    8.613528    8.916619    ( 0.0000,  0.0000,  0.0000)
  53 O      1.106624    8.590064    8.968799    ( 0.0000,  0.0000,  0.0000)
  54 O      6.277899   10.520684    8.932675    ( 0.0000,  0.0000,  0.0000)
  55 O      9.239512   10.505901    9.787166    ( 0.0000,  0.0000,  0.0000)
  56 O      4.070086    8.548203    9.743966    ( 0.0000,  0.0000,  0.0000)
  57 O      7.774125    8.623501    8.290909    ( 0.0000,  0.0000,  0.0000)
  58 O      2.586216   10.493002    8.364186    ( 0.0000,  0.0000,  0.0000)
  59 O      1.076777   10.557310   11.031768    ( 0.0000,  0.0000,  0.0000)
  60 O      6.218907    8.602903   11.006322    ( 0.0000,  0.0000,  0.0000)
  61 Ti     4.264906    8.608049   11.636106    ( 0.0000,  0.0000,  0.0000)
  62 Ti     9.477458   10.585394   11.763632    ( 0.0000,  0.0000,  0.0000)
  63 Ti     2.079108   10.548307   12.688785    ( 0.0000,  0.0000,  0.0000)
  64 Ti     7.206343    8.590993   12.529336    ( 0.0000,  0.0000,  0.0000)
  65 O      2.513726    8.574008   12.416764    ( 0.0000,  0.0000,  0.0000)
  66 O      7.654020   10.523279   12.533010    ( 0.0000,  0.0000,  0.0000)
  67 O      0.377152   10.535370   13.408719    ( 0.0000,  0.0000,  0.0000)
  68 O      5.314464    8.571363   13.387996    ( 0.0000,  0.0000,  0.0000)
  69 O      9.050123    8.574326   11.855570    ( 0.0000,  0.0000,  0.0000)
  70 O      4.008589   10.508285   11.791017    ( 0.0000,  0.0000,  0.0000)
  71 O      9.941208   14.330547    7.418288    ( 0.0000,  0.0000,  0.0000)
  72 O      4.775420   12.414051    7.436483    ( 0.0000,  0.0000,  0.0000)
  73 Ti     3.008129   12.424318    8.306545    ( 0.0000,  0.0000,  0.0000)
  74 Ti     8.167684   14.360686    8.310916    ( 0.0000,  0.0000,  0.0000)
  75 Ti     0.667845   14.325759    8.963518    ( 0.0000,  0.0000,  0.0000)
  76 Ti     5.854739   12.451919    9.032147    ( 0.0000,  0.0000,  0.0000)
  77 O      1.088510   12.413214    8.932575    ( 0.0000,  0.0000,  0.0000)
  78 O      6.253488   14.340663    8.925934    ( 0.0000,  0.0000,  0.0000)
  79 O      9.235304   14.370868    9.845020    ( 0.0000,  0.0000,  0.0000)
  80 O      4.052267   12.460180    9.852855    ( 0.0000,  0.0000,  0.0000)
  81 O      7.761875   12.441132    8.367417    ( 0.0000,  0.0000,  0.0000)
  82 O      2.572719   14.330054    8.355956    ( 0.0000,  0.0000,  0.0000)
  83 O      1.102135   14.335759   10.969828    ( 0.0000,  0.0000,  0.0000)
  84 O      6.265053   12.478423   11.009841    ( 0.0000,  0.0000,  0.0000)
  85 Ti     4.420885   12.414036   11.906475    ( 0.0000,  0.0000,  0.0000)
  86 Ti     9.579562   14.365509   11.922753    ( 0.0000,  0.0000,  0.0000)
  87 Ti     2.045981   14.338083   12.481003    ( 0.0000,  0.0000,  0.0000)
  88 Ti     7.193276   12.467412   12.625391    ( 0.0000,  0.0000,  0.0000)
  89 O      2.574958   12.436214   12.708140    ( 0.0000,  0.0000,  0.0000)
  90 O      7.733134   14.352792   12.718731    ( 0.0000,  0.0000,  0.0000)
  91 O      0.428807   14.326050   13.368711    ( 0.0000,  0.0000,  0.0000)
  92 O      5.543343   12.392530   13.395065    ( 0.0000,  0.0000,  0.0000)
  93 O      9.178025   12.436611   11.853342    ( 0.0000,  0.0000,  0.0000)
  94 O      4.026842   14.342149   11.940725    ( 0.0000,  0.0000,  0.0000)
  95 V      4.035850    8.593315   14.648230    ( 0.0000,  0.0000,  0.0000)
  96 O      3.004968   10.091192   14.492042    ( 0.0000,  0.0000,  0.0000)
  97 O      3.012293    7.088272   14.513683    ( 0.0000,  0.0000,  0.0000)
  98 O      4.618869    8.611576   16.132279    ( 0.0000,  0.0000,  0.0000)
  99 V      9.390559    8.560445   14.562765    ( 0.0000,  0.0000,  0.0000)
 100 O     10.963677    9.277322   14.588109    ( 0.0000,  0.0000,  0.0000)
 101 O      7.828688    8.723129   14.520558    ( 0.0000,  0.0000,  0.0000)
 102 O      9.814987    8.692207   16.114952    ( 0.0000,  0.0000,  0.0000)
 103 H      7.731480    8.808506   15.469108    ( 0.0000,  0.0000,  0.0000)
 104 H      2.891281    8.663621   15.306117    ( 0.0000,  0.0000,  0.0000)

Unit cell:
           periodic     x           y           z      points  spacing
  1. axis:    yes   10.341746    0.000000    0.000000    54     0.1915
  2. axis:    yes   -0.000000   15.289380    0.000000    80     0.1911
  3. axis:    yes    0.000000    0.000000   23.497201   125     0.1880

  Lengths:  10.341746  15.289380  23.497201
  Angles:   90.000000  90.000000  90.000000

Effective grid spacing dv^(1/3) = 0.1902

                     log10-error:    total        iterations:
           time      wfs    density  energy       fermi  poisson
iter:   1  11:26:39  -2.10   +inf  -844.860559    3             
iter:   2  11:27:10  -2.95  -2.78  -844.838415    4             
iter:   3  11:27:42  -3.58  -2.75  -844.764347    3             
iter:   4  11:28:13  -3.95  -2.99  -844.741685    3             
iter:   5  11:28:45  -3.31  -3.08  -844.702327    3             
iter:   6  11:29:16  -3.74  -3.24  -844.699430    3             
iter:   7  11:29:47  -4.20  -3.27  -844.696289    3             
iter:   8  11:30:19  -4.01  -3.41  -844.696665    2             
iter:   9  11:30:50  -4.53  -3.51  -844.693397    3             
iter:  10  11:31:21  -4.55  -3.64  -844.692802    3             
iter:  11  11:31:53  -4.83  -3.71  -844.691776    2             
iter:  12  11:32:24  -5.33  -3.97  -844.691956    2             
iter:  13  11:32:55  -5.90  -4.04  -844.692305    2             
iter:  14  11:33:27  -6.56  -4.10  -844.691922    2             
iter:  15  11:33:58  -5.90  -4.12  -844.692150    2             
iter:  16  11:34:29  -6.50  -4.24  -844.692067    2             
iter:  17  11:35:00  -6.36  -4.27  -844.692028    2             
iter:  18  11:35:31  -6.20  -4.41  -844.692054    2             
iter:  19  11:36:03  -6.76  -4.48  -844.692088    2             
iter:  20  11:36:35  -6.48  -4.61  -844.692103    2             
iter:  21  11:37:06  -7.05  -4.65  -844.692253    2             
iter:  22  11:37:38  -6.39  -4.74  -844.692121    2             
iter:  23  11:38:09  -7.38  -4.78  -844.692147    2             
iter:  24  11:38:41  -6.53  -4.89  -844.692140    2             
iter:  25  11:39:12  -7.95  -4.96  -844.692159    2             

Converged after 25 iterations.

Dipole moment: (-1.160184, 0.157986, -0.927604) |e|*Ang

Energy contributions relative to reference atoms: (reference = -935653.237240)

Kinetic:       +666.785472
Potential:     -814.925730
External:        +0.000000
XC:            -702.343934
Entropy (-ST):   -0.818673
Local:           +6.201369
--------------------------
Free energy:   -845.101495
Extrapolated:  -844.692159

Fermi level: -1.31910

Showing all kpts
 Kpt  Band  Eigenvalues  Occupancy
  0   411     -1.34851    0.57299
  0   412     -1.28355    0.41204
  0   413     -1.23389    0.29900
  0   414     -1.21469    0.26037

  1   411     -1.34760    0.57077
  1   412     -1.28193    0.40814
  1   413     -1.23497    0.30126
  1   414     -1.21501    0.26098



Forces in eV/Ang:
  0 O    -1.52611   -0.08136    1.20291
  1 O    -1.09494    0.01172    1.20872
  2 Ti    2.51411   -0.05509    1.14611
  3 Ti    2.34081    0.47817    0.62321
  4 Ti    0.06426    0.14602   -1.41788
  5 Ti   -1.68460    0.23345   -1.17206
  6 O     0.28263   -0.10567   -0.11639
  7 O     0.28025    0.06763   -0.27412
  8 O    -1.23851   -0.05180    0.08621
  9 O    -0.71137    0.00445   -0.24897
 10 O     0.19684    0.47562   -1.07972
 11 O     0.27554   -0.18683   -0.90886
 12 O    -0.14184   -0.04277   -0.03263
 13 O     0.03731    0.04200    0.08387
 14 Ti   -0.11890   -0.02236    0.06092
 15 Ti    0.69572    0.11522    0.64798
 16 Ti    0.01342    0.23705    0.23258
 17 Ti   -0.27231    0.17664    0.01440
 18 O    -0.04250   -0.07457    0.05254
 19 O     0.05225   -0.02832    0.15332
 20 O    -0.39416    0.02211   -0.65281
 21 O     0.14889   -0.03964    0.05858
 22 O     0.09509    0.17825   -0.05957
 23 O     0.11274   -0.14058   -0.01068
 24 O    -1.77628   -0.04607    2.01062
 25 O    -0.24408   -0.04238    0.07994
 26 Ti    0.02958    0.12121    0.61241
 27 Ti    3.48835    0.32621   -0.04937
 28 Ti    0.07960    0.08875   -1.99169
 29 Ti   -0.47325    0.21019    0.57561
 30 O     0.18438   -0.12618   -0.09482
 31 O    -0.03993   -0.33834   -0.10224
 32 O    -1.44800    0.04224    0.83214
 33 O    -0.02505   -0.29530   -0.89469
 34 O     0.30044    0.08506   -0.98971
 35 O    -0.66811    0.01442   -0.29187
 36 O     0.68675   -0.00777    0.95882
 37 Ti   -0.13554    0.19285   -0.31854
 38 Ti    1.93254   -0.40755    0.47492
 39 Ti    0.47626    0.41092    1.32774
 40 Ti   -1.36794   -0.16806   -1.94669
 41 O     0.04374   -0.19858   -0.15510
 42 O     0.13988    0.14354    0.51618
 43 O    -2.04513    0.79912   -0.27890
 44 O     0.20086    0.00447    0.53193
 45 O     0.13061   -0.17057    0.33032
 46 O     0.11889   -0.19717    0.08441
 47 O    -1.66665    0.04640    1.90688
 48 O    -1.08952   -0.03170    1.17742
 49 Ti    2.62734   -0.00025    1.15914
 50 Ti    3.62108   -0.33408    0.24210
 51 Ti   -0.66801   -0.03429   -1.90993
 52 Ti   -1.40148    0.09386   -1.32632
 53 O     0.27207   -0.06750    0.00313
 54 O     0.05341    0.13451   -0.02945
 55 O    -1.23869    0.03169    0.71554
 56 O    -0.92844    0.02160   -0.29456
 57 O     0.21244   -0.06427   -0.91893
 58 O     0.29730    0.01880   -0.91491
 59 O    -0.45709   -0.09450   -0.08148
 60 O     0.20382   -0.10223   -0.02517
 61 Ti   -0.20028   -0.08113    0.44697
 62 Ti    1.48677    0.15102   -0.18087
 63 Ti    1.08350   -0.47430    0.52673
 64 Ti   -2.09340    0.30736   -1.08238
 65 O     0.07178   -0.02341   -0.65297
 66 O     0.03050    0.39009    0.63632
 67 O    -1.57416    1.02261   -1.40811
 68 O     1.76969   -0.06260   -2.31617
 69 O     0.46531    0.15185    0.93709
 70 O     0.09100    0.20475    0.09710
 71 O    -1.25333    0.05444    1.27437
 72 O    -1.20078    0.08181    1.54980
 73 Ti    2.59555   -0.12945    0.92349
 74 Ti    2.96125   -0.94796    0.84397
 75 Ti   -0.83319   -0.23745   -1.41218
 76 Ti   -1.17987   -0.52105   -1.68784
 77 O     0.22637    0.28416   -0.12394
 78 O     0.22138    0.04549   -0.21597
 79 O    -0.82170   -0.00267   -0.05241
 80 O    -0.61877   -0.01387   -0.13174
 81 O     0.02387    0.24366   -0.79420
 82 O     0.23424    0.28374   -0.96812
 83 O    -0.06645    0.10192    0.02429
 84 O     0.39260    0.09869    0.95117
 85 Ti   -0.36023   -0.15144   -0.01780
 86 Ti    0.64830   -0.47183    0.15978
 87 Ti    0.07621   -0.22169    0.08254
 88 Ti   -0.82932   -0.33650   -1.84066
 89 O     0.01290    0.27045   -0.03626
 90 O    -0.11887   -0.21104    0.38709
 91 O    -0.24554    0.07895   -0.32844
 92 O     0.54817    0.02169    0.18299
 93 O    -0.23230    0.29469    0.47598
 94 O    -0.00450    0.27872    0.01796
 95 V     5.08681   -0.58630   -2.31279
 96 O     0.47758   -0.23945   -0.42298
 97 O     0.06093    0.45803   -0.58006
 98 O     0.47922   -0.00525    0.65524
 99 V    14.20661   -3.84404    1.53359
100 O     1.56663    1.40912   -1.30280
101 O   -10.58990    1.84658   -1.22753
102 O    -2.26827   -1.75790    1.62280
103 H    -1.60573    0.19260    1.71135
104 H    -7.82289    0.62960    3.47584

System changes: positions 

Initializing position-dependent things.

Density initialized from wave functions
          .------------------------.  
         /|                        |  
        / |                        |  
       /  |                        |  
      /   |                        |  
     /    |                        |  
    /     |                        |  
   /      |                        |  
  /       |                        |  
 *        |                        |  
 |        |                        |  
 |        |                        |  
 |        |                        |  
 |        O      O            O    |  
 |        |  HOi      O  H  O      |  
 |      O |    OV  O     OTi V   Ti|  
 |        | Oi     Oi     O    O   |  
 |    O   |      O     Ti     TiO  |  
 |        TiO     O         O      |  
 |        OTi   TiO  O O O   Ti    |  
 |  O  O  |O  TiTi   Tii   OTiO  O |  
 |      Tii    OO    OO   O        |  
 |      OO| OO    OTii    Tii      |  
 |   O Ti | Tii     O   OO     O   |  
 |    O   |O     OOTi    Oi        |  
 |  Ti    TO   O  O    O     O     |  
 |  O    O|     Ti    Ti           |  
 |       Ti         O      O       |  
 |        |  O                     |  
 |        .------------------------.  
 |       /                        /   
 |      /                        /    
 |     /                        /     
 |    /                        /      
 |   /                        /       
 |  /                        /        
 | /                        /         
 |/                        /          
 *------------------------*           

Positions:
   0 O      9.980185    2.844521    7.396465    ( 0.0000,  0.0000,  0.0000)
   1 O      4.767913    0.962098    7.420913    ( 0.0000,  0.0000,  0.0000)
   2 Ti     2.985668    0.961254    8.317936    ( 0.0000,  0.0000,  0.0000)
   3 Ti     8.204778    2.787675    8.278517    ( 0.0000,  0.0000,  0.0000)
   4 Ti     0.635819    2.840589    8.985048    ( 0.0000,  0.0000,  0.0000)
   5 Ti     5.863284    0.927962    8.948246    ( 0.0000,  0.0000,  0.0000)
   6 O      1.084245    0.960152    8.932879    ( 0.0000,  0.0000,  0.0000)
   7 O      6.331546    2.840471    8.934380    ( 0.0000,  0.0000,  0.0000)
   8 O      9.249550    2.799874    9.824868    ( 0.0000,  0.0000,  0.0000)
   9 O      4.065677    0.960502    9.843539    ( 0.0000,  0.0000,  0.0000)
  10 O      7.765556    0.918512    8.326000    ( 0.0000,  0.0000,  0.0000)
  11 O      2.557918    2.892930    8.364612    ( 0.0000,  0.0000,  0.0000)
  12 O      1.087930    2.895204   10.990695    ( 0.0000,  0.0000,  0.0000)
  13 O      6.282488    0.923689   10.950782    ( 0.0000,  0.0000,  0.0000)
  14 Ti     4.390876    0.977991   11.909656    ( 0.0000,  0.0000,  0.0000)
  15 Ti     9.574413    2.829342   11.896657    ( 0.0000,  0.0000,  0.0000)
  16 Ti     2.016203    2.855078   12.518054    ( 0.0000,  0.0000,  0.0000)
  17 Ti     7.189099    0.937272   12.475859    ( 0.0000,  0.0000,  0.0000)
  18 O      2.569079    0.971738   12.708361    ( 0.0000,  0.0000,  0.0000)
  19 O      7.710586    2.860025   12.673566    ( 0.0000,  0.0000,  0.0000)
  20 O      0.377778    2.841186   13.381282    ( 0.0000,  0.0000,  0.0000)
  21 O      5.564626    1.031417   13.338386    ( 0.0000,  0.0000,  0.0000)
  22 O      9.171739    0.952067   11.937854    ( 0.0000,  0.0000,  0.0000)
  23 O      3.958427    2.925606   11.860800    ( 0.0000,  0.0000,  0.0000)
  24 O      9.991370    6.703855    7.368943    ( 0.0000,  0.0000,  0.0000)
  25 O      4.577087    4.781638    8.034107    ( 0.0000,  0.0000,  0.0000)
  26 Ti     2.755852    4.781525    7.969748    ( 0.0000,  0.0000,  0.0000)
  27 Ti     8.187997    6.727660    8.231071    ( 0.0000,  0.0000,  0.0000)
  28 Ti     0.672754    6.691601    9.120437    ( 0.0000,  0.0000,  0.0000)
  29 Ti     6.080332    4.762402    9.073394    ( 0.0000,  0.0000,  0.0000)
  30 O      1.046974    4.772222    8.929680    ( 0.0000,  0.0000,  0.0000)
  31 O      6.352271    6.700411    8.941918    ( 0.0000,  0.0000,  0.0000)
  32 O      9.243059    6.722817    9.788596    ( 0.0000,  0.0000,  0.0000)
  33 O      7.829286    4.769571    8.311283    ( 0.0000,  0.0000,  0.0000)
  34 O      2.552542    6.657923    8.364551    ( 0.0000,  0.0000,  0.0000)
  35 O      1.061314    6.575825   11.065412    ( 0.0000,  0.0000,  0.0000)
  36 O      5.925207    4.742300   10.949232    ( 0.0000,  0.0000,  0.0000)
  37 Ti     4.396889    4.790529   12.251454    ( 0.0000,  0.0000,  0.0000)
  38 Ti     9.500279    6.661931   11.773564    ( 0.0000,  0.0000,  0.0000)
  39 Ti     2.053201    6.647699   12.749890    ( 0.0000,  0.0000,  0.0000)
  40 Ti     7.296680    4.745915   12.675505    ( 0.0000,  0.0000,  0.0000)
  41 O      2.543615    4.722309   12.947711    ( 0.0000,  0.0000,  0.0000)
  42 O      7.646472    6.643318   12.594051    ( 0.0000,  0.0000,  0.0000)
  43 O      0.325297    6.695963   13.450629    ( 0.0000,  0.0000,  0.0000)
  44 O      5.671469    4.782527   13.531535    ( 0.0000,  0.0000,  0.0000)
  45 O      9.099894    4.767760   11.813985    ( 0.0000,  0.0000,  0.0000)
  46 O      3.946101    6.567844   11.798115    ( 0.0000,  0.0000,  0.0000)
  47 O      9.964595   10.524965    7.385076    ( 0.0000,  0.0000,  0.0000)
  48 O      4.815800    8.594439    7.385821    ( 0.0000,  0.0000,  0.0000)
  49 Ti     2.938692    8.598153    8.220795    ( 0.0000,  0.0000,  0.0000)
  50 Ti     8.151981   10.570147    8.246653    ( 0.0000,  0.0000,  0.0000)
  51 Ti     0.697144   10.528620    9.089260    ( 0.0000,  0.0000,  0.0000)
  52 Ti     5.904985    8.613528    8.916619    ( 0.0000,  0.0000,  0.0000)
  53 O      1.106624    8.590064    8.968799    ( 0.0000,  0.0000,  0.0000)
  54 O      6.277899   10.520684    8.932675    ( 0.0000,  0.0000,  0.0000)
  55 O      9.239512   10.505901    9.787166    ( 0.0000,  0.0000,  0.0000)
  56 O      4.070086    8.548203    9.743966    ( 0.0000,  0.0000,  0.0000)
  57 O      7.774125    8.623501    8.290909    ( 0.0000,  0.0000,  0.0000)
  58 O      2.586216   10.493002    8.364186    ( 0.0000,  0.0000,  0.0000)
  59 O      1.074433   10.556476   11.031179    ( 0.0000,  0.0000,  0.0000)
  60 O      6.219514    8.602150   11.005274    ( 0.0000,  0.0000,  0.0000)
  61 Ti     4.263190    8.607627   11.637032    ( 0.0000,  0.0000,  0.0000)
  62 Ti     9.486914   10.586306   11.763279    ( 0.0000,  0.0000,  0.0000)
  63 Ti     2.083835   10.546263   12.691828    ( 0.0000,  0.0000,  0.0000)
  64 Ti     7.196971    8.593555   12.525414    ( 0.0000,  0.0000,  0.0000)
  65 O      2.514139    8.573359   12.412677    ( 0.0000,  0.0000,  0.0000)
  66 O      7.654249   10.525816   12.536199    ( 0.0000,  0.0000,  0.0000)
  67 O      0.366664   10.545767   13.395474    ( 0.0000,  0.0000,  0.0000)
  68 O      5.325229    8.570822   13.373190    ( 0.0000,  0.0000,  0.0000)
  69 O      9.053135    8.574928   11.861400    ( 0.0000,  0.0000,  0.0000)
  70 O      4.009188   10.509118   11.791748    ( 0.0000,  0.0000,  0.0000)
  71 O      9.941208   14.330547    7.418288    ( 0.0000,  0.0000,  0.0000)
  72 O      4.775420   12.414051    7.436483    ( 0.0000,  0.0000,  0.0000)
  73 Ti     3.008129   12.424318    8.306545    ( 0.0000,  0.0000,  0.0000)
  74 Ti     8.167684   14.360686    8.310916    ( 0.0000,  0.0000,  0.0000)
  75 Ti     0.667845   14.325759    8.963518    ( 0.0000,  0.0000,  0.0000)
  76 Ti     5.854739   12.451919    9.032147    ( 0.0000,  0.0000,  0.0000)
  77 O      1.088510   12.413214    8.932575    ( 0.0000,  0.0000,  0.0000)
  78 O      6.253488   14.340663    8.925934    ( 0.0000,  0.0000,  0.0000)
  79 O      9.235304   14.370868    9.845020    ( 0.0000,  0.0000,  0.0000)
  80 O      4.052267   12.460180    9.852855    ( 0.0000,  0.0000,  0.0000)
  81 O      7.761875   12.441132    8.367417    ( 0.0000,  0.0000,  0.0000)
  82 O      2.572719   14.330054    8.355956    ( 0.0000,  0.0000,  0.0000)
  83 O      1.101874   14.336386   10.970004    ( 0.0000,  0.0000,  0.0000)
  84 O      6.267125   12.479118   11.014944    ( 0.0000,  0.0000,  0.0000)
  85 Ti     4.418786   12.413620   11.906797    ( 0.0000,  0.0000,  0.0000)
  86 Ti     9.583063   14.362306   11.923740    ( 0.0000,  0.0000,  0.0000)
  87 Ti     2.046445   14.336756   12.481441    ( 0.0000,  0.0000,  0.0000)
  88 Ti     7.189016   12.464977   12.614130    ( 0.0000,  0.0000,  0.0000)
  89 O      2.575212   12.437739   12.707968    ( 0.0000,  0.0000,  0.0000)
  90 O      7.732409   14.351713   12.721192    ( 0.0000,  0.0000,  0.0000)
  91 O      0.427495   14.326564   13.366887    ( 0.0000,  0.0000,  0.0000)
  92 O      5.546067   12.392601   13.396158    ( 0.0000,  0.0000,  0.0000)
  93 O      9.176479   12.438957   11.856088    ( 0.0000,  0.0000,  0.0000)
  94 O      4.026842   14.343782   11.940803    ( 0.0000,  0.0000,  0.0000)
  95 V      4.046687    8.591094   14.648186    ( 0.0000,  0.0000,  0.0000)
  96 O      3.009535   10.087359   14.490066    ( 0.0000,  0.0000,  0.0000)
  97 O      3.013666    7.092440   14.509951    ( 0.0000,  0.0000,  0.0000)
  98 O      4.621081    8.611325   16.133752    ( 0.0000,  0.0000,  0.0000)
  99 V      9.415891    8.544165   14.573011    ( 0.0000,  0.0000,  0.0000)
 100 O     10.973861    9.285457   14.579111    ( 0.0000,  0.0000,  0.0000)
 101 O      7.826637    8.728636   14.517604    ( 0.0000,  0.0000,  0.0000)
 102 O      9.798110    8.680676   16.129851    ( 0.0000,  0.0000,  0.0000)
 103 H      7.722861    8.808945   15.473594    ( 0.0000,  0.0000,  0.0000)
 104 H      2.859978    8.668710   15.316741    ( 0.0000,  0.0000,  0.0000)

Unit cell:
           periodic     x           y           z      points  spacing
  1. axis:    yes   10.341746    0.000000    0.000000    54     0.1915
  2. axis:    yes   -0.000000   15.289380    0.000000    80     0.1911
  3. axis:    yes    0.000000    0.000000   23.497201   125     0.1880

  Lengths:  10.341746  15.289380  23.497201
  Angles:   90.000000  90.000000  90.000000

Effective grid spacing dv^(1/3) = 0.1902

                     log10-error:    total        iterations:
           time      wfs    density  energy       fermi  poisson
iter:   1  11:40:06  -2.36   +inf  -846.013356    3             
iter:   2  11:40:38  -3.20  -2.90  -845.956999    3             
iter:   3  11:41:09  -3.82  -3.03  -845.964592    3             
iter:   4  11:41:40  -4.22  -3.05  -845.951741    3             
iter:   5  11:42:11  -3.59  -3.14  -845.942774    3             
iter:   6  11:42:43  -4.29  -3.33  -845.941403    3             
iter:   7  11:43:15  -4.95  -3.41  -845.939065    3             
iter:   8  11:43:47  -4.67  -3.49  -845.939694    2             
iter:   9  11:44:19  -5.25  -3.63  -845.939328    2             
iter:  10  11:44:51  -5.36  -3.77  -845.938937    2             
iter:  11  11:45:23  -5.44  -3.97  -845.938366    3             
iter:  12  11:45:55  -6.13  -4.12  -845.938509    2             
iter:  13  11:46:26  -6.32  -4.17  -845.938390    2             
iter:  14  11:46:58  -6.32  -4.19  -845.938490    2             
iter:  15  11:47:29  -6.68  -4.28  -845.938488    2             
iter:  16  11:48:01  -6.87  -4.34  -845.938573    2             
iter:  17  11:48:32  -6.63  -4.42  -845.938460    2             
iter:  18  11:49:03  -7.23  -4.65  -845.938521    2             
iter:  19  11:49:35  -7.49  -4.85  -845.938505    2             

Converged after 19 iterations.

Dipole moment: (-1.635247, 0.075089, -0.922173) |e|*Ang

Energy contributions relative to reference atoms: (reference = -935653.237240)

Kinetic:       +661.083735
Potential:     -811.176218
External:        +0.000000
XC:            -701.667464
Entropy (-ST):   -0.797857
Local:           +6.220371
--------------------------
Free energy:   -846.337434
Extrapolated:  -845.938505

Fermi level: -1.31445

Showing all kpts
 Kpt  Band  Eigenvalues  Occupancy
  0   411     -1.36765    0.62995
  0   412     -1.27525    0.40324
  0   413     -1.22564    0.29150
  0   414     -1.19281    0.22858

  1   411     -1.36698    0.62840
  1   412     -1.27397    0.40017
  1   413     -1.22837    0.29718
  1   414     -1.18858    0.22120



Forces in eV/Ang:
  0 O    -1.52881   -0.08097    1.19989
  1 O    -1.08789    0.01185    1.20997
  2 Ti    2.50351   -0.05312    1.14437
  3 Ti    2.37620    0.46637    0.64008
  4 Ti    0.04383    0.14332   -1.42261
  5 Ti   -1.68654    0.22671   -1.16526
  6 O     0.28634   -0.10567   -0.11666
  7 O     0.26482    0.09966   -0.26031
  8 O    -1.23929   -0.04542    0.06147
  9 O    -0.70775    0.00531   -0.24470
 10 O     0.18944    0.47717   -1.08250
 11 O     0.28016   -0.18784   -0.90781
 12 O    -0.10048   -0.03637    0.00592
 13 O     0.01452    0.04542    0.05771
 14 Ti   -0.09219   -0.03239    0.06489
 15 Ti    0.57376    0.07567    0.56792
 16 Ti    0.04249    0.18437    0.17140
 17 Ti   -0.18554    0.10860    0.02536
 18 O    -0.05201   -0.04710    0.05959
 19 O     0.03961    0.01252    0.15479
 20 O    -0.33722    0.03036   -0.53934
 21 O     0.10925   -0.03226    0.05536
 22 O     0.08783    0.16601   -0.05701
 23 O     0.09536   -0.10576   -0.00870
 24 O    -1.78010   -0.04732    2.00681
 25 O    -0.19245   -0.04209    0.09697
 26 Ti    0.00370    0.12005    0.61400
 27 Ti    3.52910    0.33874   -0.02747
 28 Ti    0.04908    0.09650   -2.02467
 29 Ti   -0.45899    0.20665    0.54346
 30 O     0.18467   -0.12485   -0.09342
 31 O    -0.05713   -0.36328   -0.08719
 32 O    -1.45042    0.03611    0.80450
 33 O    -0.05700   -0.29298   -0.89109
 34 O     0.30576    0.08547   -0.98667
 35 O    -0.58167    0.00487   -0.15462
 36 O     0.70791   -0.00860    0.93599
 37 Ti   -0.08903    0.14030   -0.22036
 38 Ti    1.69010   -0.29398    0.46383
 39 Ti    0.44541    0.40049    1.28195
 40 Ti   -1.30572   -0.10643   -1.96663
 41 O     0.01378   -0.14372   -0.13418
 42 O     0.14475    0.09266    0.47765
 43 O    -1.90321    0.82623   -0.19108
 44 O     0.12754    0.00474    0.45644
 45 O     0.13723   -0.15105    0.31894
 46 O     0.07555   -0.17937    0.08647
 47 O    -1.67416    0.04546    1.89238
 48 O    -1.07816   -0.03214    1.18427
 49 Ti    2.60400    0.00112    1.14929
 50 Ti    3.67186   -0.33801    0.26792
 51 Ti   -0.69432   -0.03499   -1.89488
 52 Ti   -1.40269    0.10388   -1.35550
 53 O     0.27978   -0.07754    0.00044
 54 O     0.03814    0.14261   -0.01635
 55 O    -1.23981    0.04125    0.63413
 56 O    -0.91324    0.02067   -0.25849
 57 O     0.20083   -0.07056   -0.92166
 58 O     0.30850    0.02390   -0.91690
 59 O    -0.36542   -0.10726   -0.11133
 60 O     0.15186   -0.09607   -0.15828
 61 Ti   -0.17654   -0.06803    0.32671
 62 Ti    1.39547    0.12189   -0.03299
 63 Ti    0.77575   -0.42428    0.57249
 64 Ti   -1.69731    0.33074   -0.89598
 65 O     0.05394   -0.05838   -0.62540
 66 O     0.03902    0.34397    0.56219
 67 O    -1.46978    1.37422   -1.67776
 68 O     1.47327   -0.06361   -1.97830
 69 O     0.43286    0.10624    0.88227
 70 O     0.07396    0.17947    0.09487
 71 O    -1.25500    0.05462    1.27174
 72 O    -1.17915    0.08223    1.56391
 73 Ti    2.56420   -0.13216    0.91509
 74 Ti    2.98674   -0.94475    0.85807
 75 Ti   -0.84745   -0.23762   -1.41193
 76 Ti   -1.18631   -0.51851   -1.71652
 77 O     0.23589    0.29250   -0.12652
 78 O     0.21242    0.02898   -0.20638
 79 O    -0.82243   -0.00376   -0.08111
 80 O    -0.58808   -0.01481   -0.10332
 81 O     0.00968    0.24566   -0.79001
 82 O     0.24023    0.27959   -0.96782
 83 O    -0.04227    0.09233    0.03110
 84 O     0.28894    0.09934    0.70181
 85 Ti   -0.32048   -0.11012    0.06474
 86 Ti    0.50723   -0.45224    0.16033
 87 Ti    0.06794   -0.19330    0.07008
 88 Ti   -0.63456   -0.32649   -1.60768
 89 O     0.03157    0.24216   -0.03222
 90 O    -0.10042   -0.15074    0.35400
 91 O    -0.19212    0.07832   -0.27312
 92 O     0.42042    0.01405    0.13275
 93 O    -0.22010    0.32192    0.41088
 94 O    -0.00603    0.25095    0.01340
 95 V     3.80358   -0.46831   -1.64029
 96 O     0.51609   -0.22805   -0.40930
 97 O     0.04660    0.35982   -0.61445
 98 O     0.51327   -0.01897    0.64052
 99 V    12.89898   -3.46879    1.74324
100 O     1.14637    0.72475   -1.21036
101 O    -8.85641    1.74359   -0.87357
102 O    -2.31503   -1.78713    1.58874
103 H    -1.48081    0.14486    1.17583
104 H    -6.46611    0.61098    2.64667

System changes: positions 

Initializing position-dependent things.

Density initialized from wave functions
          .------------------------.  
         /|                        |  
        / |                        |  
       /  |                        |  
      /   |                        |  
     /    |                        |  
    /     |                        |  
   /      |                        |  
  /       |                        |  
 *        |                        |  
 |        |                        |  
 |        |                        |  
 |        |                        |  
 |        O      O            O    |  
 |        |  HOi      O  H  O      |  
 |      O |    OV  O     OTi V   Ti|  
 |        | Oi     Oi     O    O   |  
 |    O   |      O     Ti     TiO  |  
 |        TiO     O         O      |  
 |        OTi   TiO  O O O   Ti    |  
 |  O  O  |O  TiTi   Tii   OTiO  O |  
 |      Tii    OO    OO   O        |  
 |      OO| OO    OTii    Tii      |  
 |   O Ti | Tii     O   OO     O   |  
 |    O   |O     OOTi    Oi        |  
 |  Ti    TO   O  O    O     O     |  
 |  O    O|     Ti    Ti           |  
 |       Ti         O      O       |  
 |        |  O                     |  
 |        .------------------------.  
 |       /                        /   
 |      /                        /    
 |     /                        /     
 |    /                        /      
 |   /                        /       
 |  /                        /        
 | /                        /         
 |/                        /          
 *------------------------*           

Positions:
   0 O      9.980185    2.844521    7.396465    ( 0.0000,  0.0000,  0.0000)
   1 O      4.767913    0.962098    7.420913    ( 0.0000,  0.0000,  0.0000)
   2 Ti     2.985668    0.961254    8.317936    ( 0.0000,  0.0000,  0.0000)
   3 Ti     8.204778    2.787675    8.278517    ( 0.0000,  0.0000,  0.0000)
   4 Ti     0.635819    2.840589    8.985048    ( 0.0000,  0.0000,  0.0000)
   5 Ti     5.863284    0.927962    8.948246    ( 0.0000,  0.0000,  0.0000)
   6 O      1.084245    0.960152    8.932879    ( 0.0000,  0.0000,  0.0000)
   7 O      6.331546    2.840471    8.934380    ( 0.0000,  0.0000,  0.0000)
   8 O      9.249550    2.799874    9.824868    ( 0.0000,  0.0000,  0.0000)
   9 O      4.065677    0.960502    9.843539    ( 0.0000,  0.0000,  0.0000)
  10 O      7.765556    0.918512    8.326000    ( 0.0000,  0.0000,  0.0000)
  11 O      2.557918    2.892930    8.364612    ( 0.0000,  0.0000,  0.0000)
  12 O      1.087615    2.894995   10.991111    ( 0.0000,  0.0000,  0.0000)
  13 O      6.282377    0.924034   10.950882    ( 0.0000,  0.0000,  0.0000)
  14 Ti     4.390405    0.977623   11.910043    ( 0.0000,  0.0000,  0.0000)
  15 Ti     9.577579    2.829476   11.900013    ( 0.0000,  0.0000,  0.0000)
  16 Ti     2.016703    2.855760   12.518654    ( 0.0000,  0.0000,  0.0000)
  17 Ti     7.188549    0.937447   12.476135    ( 0.0000,  0.0000,  0.0000)
  18 O      2.568589    0.971656   12.708860    ( 0.0000,  0.0000,  0.0000)
  19 O      7.710720    2.860493   12.674651    ( 0.0000,  0.0000,  0.0000)
  20 O      0.375817    2.841478   13.378353    ( 0.0000,  0.0000,  0.0000)
  21 O      5.565040    1.031238   13.338845    ( 0.0000,  0.0000,  0.0000)
  22 O      9.172340    0.953198   11.937460    ( 0.0000,  0.0000,  0.0000)
  23 O      3.958974    2.925256   11.860692    ( 0.0000,  0.0000,  0.0000)
  24 O      9.991370    6.703855    7.368943    ( 0.0000,  0.0000,  0.0000)
  25 O      4.577087    4.781638    8.034107    ( 0.0000,  0.0000,  0.0000)
  26 Ti     2.755852    4.781525    7.969748    ( 0.0000,  0.0000,  0.0000)
  27 Ti     8.187997    6.727660    8.231071    ( 0.0000,  0.0000,  0.0000)
  28 Ti     0.672754    6.691601    9.120437    ( 0.0000,  0.0000,  0.0000)
  29 Ti     6.080332    4.762402    9.073394    ( 0.0000,  0.0000,  0.0000)
  30 O      1.046974    4.772222    8.929680    ( 0.0000,  0.0000,  0.0000)
  31 O      6.352271    6.700411    8.941918    ( 0.0000,  0.0000,  0.0000)
  32 O      9.243059    6.722817    9.788596    ( 0.0000,  0.0000,  0.0000)
  33 O      7.829286    4.769571    8.311283    ( 0.0000,  0.0000,  0.0000)
  34 O      2.552542    6.657923    8.364551    ( 0.0000,  0.0000,  0.0000)
  35 O      1.058018    6.575844   11.065793    ( 0.0000,  0.0000,  0.0000)
  36 O      5.930483    4.742247   10.955903    ( 0.0000,  0.0000,  0.0000)
  37 Ti     4.396935    4.790790   12.250600    ( 0.0000,  0.0000,  0.0000)
  38 Ti     9.510249    6.660764   11.776495    ( 0.0000,  0.0000,  0.0000)
  39 Ti     2.056377    6.650247   12.758189    ( 0.0000,  0.0000,  0.0000)
  40 Ti     7.287604    4.745550   12.660732    ( 0.0000,  0.0000,  0.0000)
  41 O      2.543377    4.721975   12.947014    ( 0.0000,  0.0000,  0.0000)
  42 O      7.647692    6.643600   12.597050    ( 0.0000,  0.0000,  0.0000)
  43 O      0.312408    6.702570   13.450538    ( 0.0000,  0.0000,  0.0000)
  44 O      5.671561    4.782574   13.534202    ( 0.0000,  0.0000,  0.0000)
  45 O      9.101035    4.766892   11.816205    ( 0.0000,  0.0000,  0.0000)
  46 O      3.946245    6.566919   11.798776    ( 0.0000,  0.0000,  0.0000)
  47 O      9.964595   10.524965    7.385076    ( 0.0000,  0.0000,  0.0000)
  48 O      4.815800    8.594439    7.385821    ( 0.0000,  0.0000,  0.0000)
  49 Ti     2.938692    8.598153    8.220795    ( 0.0000,  0.0000,  0.0000)
  50 Ti     8.151981   10.570147    8.246653    ( 0.0000,  0.0000,  0.0000)
[...]
  71 O      9.941208   14.330547    7.418288    ( 0.0000,  0.0000,  0.0000)
  72 O      4.775420   12.414051    7.436483    ( 0.0000,  0.0000,  0.0000)
  73 Ti     3.008129   12.424318    8.306545    ( 0.0000,  0.0000,  0.0000)
  74 Ti     8.167684   14.360686    8.310916    ( 0.0000,  0.0000,  0.0000)
  75 Ti     0.667845   14.325759    8.963518    ( 0.0000,  0.0000,  0.0000)
  76 Ti     5.854739   12.451919    9.032147    ( 0.0000,  0.0000,  0.0000)
  77 O      1.088510   12.413214    8.932575    ( 0.0000,  0.0000,  0.0000)
  78 O      6.253488   14.340663    8.925934    ( 0.0000,  0.0000,  0.0000)
  79 O      9.235304   14.370868    9.845020    ( 0.0000,  0.0000,  0.0000)
  80 O      4.052267   12.460180    9.852855    ( 0.0000,  0.0000,  0.0000)
  81 O      7.761875   12.441132    8.367417    ( 0.0000,  0.0000,  0.0000)
  82 O      2.572719   14.330054    8.355956    ( 0.0000,  0.0000,  0.0000)
  83 O      1.094986   14.347929   11.015712    ( 0.0000,  0.0000,  0.0000)
  84 O      6.235348   12.588526   10.965441    ( 0.0000,  0.0000,  0.0000)
  85 Ti     4.396929   12.479037   11.950180    ( 0.0000,  0.0000,  0.0000)
  86 Ti     9.606904   14.314576   11.994514    ( 0.0000,  0.0000,  0.0000)
  87 Ti     2.040651   14.345825   12.526081    ( 0.0000,  0.0000,  0.0000)
  88 Ti     7.209763   12.432689   12.450369    ( 0.0000,  0.0000,  0.0000)
  89 O      2.555652   12.467563   12.748773    ( 0.0000,  0.0000,  0.0000)
  90 O      7.736925   14.344605   12.733557    ( 0.0000,  0.0000,  0.0000)
  91 O      0.429692   14.362456   13.418924    ( 0.0000,  0.0000,  0.0000)
  92 O      5.590244   12.394493   13.348825    ( 0.0000,  0.0000,  0.0000)
  93 O      9.250504   12.425708   12.042555    ( 0.0000,  0.0000,  0.0000)
  94 O      4.009554   14.382962   11.973055    ( 0.0000,  0.0000,  0.0000)
  95 V      4.152591    8.779025   14.635191    ( 0.0000,  0.0000,  0.0000)
  96 O      3.204373   10.233927   14.326578    ( 0.0000,  0.0000,  0.0000)
  97 O      3.130571    7.340415   14.334291    ( 0.0000,  0.0000,  0.0000)
  98 O      4.806386    8.914672   16.083187    ( 0.0000,  0.0000,  0.0000)
  99 V     10.014414    7.737950   15.155109    ( 0.0000,  0.0000,  0.0000)
 100 O     11.398119    6.545579   15.715911    ( 0.0000,  0.0000,  0.0000)
 101 O      8.209712    8.869711   14.245812    ( 0.0000,  0.0000,  0.0000)
 102 O      8.787940    7.694337   16.184278    ( 0.0000,  0.0000,  0.0000)
 103 H      7.631944    9.148139   14.993279    ( 0.0000,  0.0000,  0.0000)
 104 H      1.314467    5.545526   15.468560    ( 0.0000,  0.0000,  0.0000)

Unit cell:
           periodic     x           y           z      points  spacing
  1. axis:    yes   10.341746    0.000000    0.000000    54     0.1915
  2. axis:    yes   -0.000000   15.289380    0.000000    80     0.1911
  3. axis:    yes    0.000000    0.000000   23.497201   125     0.1880

  Lengths:  10.341746  15.289380  23.497201
  Angles:   90.000000  90.000000  90.000000

Effective grid spacing dv^(1/3) = 0.1902

                     log10-error:    total        iterations:
           time      wfs    density  energy       fermi  poisson
iter:   1  16:47:28  -3.30   +inf  -855.501168    3             
iter:   2  16:48:00  -4.07  -3.48  -855.496835    4             
iter:   3  16:48:31  -4.77  -3.33  -855.488482    3             
iter:   4  16:49:02  -5.21  -3.75  -855.490332    3             
iter:   5  16:49:34  -4.80  -3.76  -855.487758    3             
iter:   6  16:50:05  -5.48  -4.01  -855.488558    3             
iter:   7  16:50:37  -5.45  -4.05  -855.488506    2             
iter:   8  16:51:07  -6.14  -4.27  -855.488168    2             
iter:   9  16:51:39  -6.54  -4.45  -855.488174    2             
iter:  10  16:52:10  -6.52  -4.57  -855.488164    2             
iter:  11  16:52:41  -7.14  -4.63  -855.488389    2             
iter:  12  16:53:12  -7.35  -4.75  -855.488187    2             
iter:  13  16:53:43  -7.19  -4.89  -855.488302    2             
iter:  14  16:54:15  -7.78  -4.96  -855.488270    2             

Converged after 14 iterations.

Dipole moment: (21.945763, -0.074714, -1.050040) |e|*Ang

Energy contributions relative to reference atoms: (reference = -935653.237240)

Kinetic:       +622.826412
Potential:     -786.645722
External:        +0.000000
XC:            -697.885827
Entropy (-ST):   -0.483415
Local:           +6.458574
--------------------------
Free energy:   -855.729978
Extrapolated:  -855.488270

Fermi level: -1.38042

Showing all kpts
 Kpt  Band  Eigenvalues  Occupancy
  0   411     -3.09518    1.00000
  0   412     -1.34350    0.40875
  0   413     -1.29780    0.30445
  0   414     -1.17926    0.11800

  1   411     -3.09486    1.00000
  1   412     -1.34594    0.41465
  1   413     -1.29708    0.30292
  1   414     -1.17339    0.11202



Forces in eV/Ang:
  0 O    -1.50021   -0.07330    1.20456
  1 O    -1.05336    0.03524    1.21187
  2 Ti    2.56629   -0.09139    1.24546
  3 Ti    2.69102    0.36876    0.87678
  4 Ti   -0.17658    0.10469   -1.18905
  5 Ti   -1.77151    0.00380   -1.05798
  6 O     0.29877   -0.10007   -0.09833
  7 O     0.17750    0.36736   -0.13870
  8 O    -1.23359   -0.09075   -0.12527
  9 O    -0.74863    0.02147   -0.23907
 10 O     0.16113    0.56550   -1.11402
 11 O     0.29620   -0.15679   -0.89219
 12 O    -0.00443   -0.00127   -0.00370
 13 O    -0.00660    0.00972   -0.02714
 14 Ti    0.01943    0.00432    0.00836
 15 Ti   -0.01895    0.00047    0.00003
 16 Ti    0.03940    0.05723    0.03135
 17 Ti    0.00737    0.05673    0.01398
 18 O    -0.00321    0.01981   -0.01235
 19 O     0.02653   -0.00881   -0.01288
 20 O    -0.01500    0.05064    0.00587
 21 O    -0.01732   -0.02914   -0.00801
 22 O     0.00700    0.03199   -0.02924
 23 O    -0.02424   -0.00811   -0.00988
 24 O    -1.58591   -0.06861    2.05025
 25 O     0.11793   -0.05755    0.21996
 26 Ti   -0.14206    0.11217    0.59788
 27 Ti    3.92380    0.57451    0.50249
 28 Ti   -0.67973    0.13091   -1.73927
 29 Ti   -0.43591    0.35836   -0.03401
 30 O     0.22548   -0.10558   -0.02087
 31 O    -0.14596   -0.79891   -0.06056
 32 O    -1.38062   -0.04130    0.10723
 33 O    -0.29584   -0.37658   -0.87036
 34 O     0.34131    0.07090   -0.94685
 35 O    -0.02741    0.04550    0.08120
 36 O     0.01470   -0.01363   -0.06010
 37 Ti   -0.02981   -0.00015   -0.02217
 38 Ti    0.09744    0.03888   -0.08083
 39 Ti    0.08734    0.04389    0.24069
 40 Ti   -0.02735    0.00896   -0.05330
 41 O     0.03853   -0.00091   -0.00546
 42 O    -0.01867    0.03284   -0.07018
 43 O     0.08352    0.80092    0.10730
 44 O    -0.02705    0.01657   -0.07048
 45 O     0.04631    0.05429    0.14306
 46 O    -0.00494    0.04986    0.03429
 47 O    -1.43881    0.07743    1.89477
 48 O    -1.32519   -0.05624    1.02651
 49 Ti    2.76277    0.06489    1.10992
 50 Ti    3.99167   -0.43114    0.85811
 51 Ti   -1.48505   -0.01546   -1.92230
 52 Ti   -1.09973    0.21105   -1.01553
 53 O     0.29636   -0.06920    0.14850
 54 O     0.00985    0.27642   -0.05753
 55 O    -1.02817    0.14706    0.49340
 56 O    -1.16552   -0.04444   -0.46189
 57 O     0.17303   -0.15898   -1.04317
 58 O     0.33211   -0.03752   -0.89534
 59 O     0.08423    0.07554   -0.16200
 60 O    -0.02100    0.01114   -0.08360
 61 Ti    0.14097   -0.04906   -0.01606
 62 Ti   -0.02430   -0.00438    0.08003
 63 Ti   -0.15534    0.02750   -0.37417
 64 Ti    0.09256   -0.09220    0.13425
 65 O     0.07511    0.03046    0.01817
 66 O     0.05799   -0.02269    0.09136
 67 O     0.05149    0.16537   -0.31275
 68 O    -0.05369    0.12108    0.16365
 69 O     0.00182    0.00133   -0.15748
 70 O     0.03454    0.00960   -0.05986
 71 O    -1.15544    0.06486    1.29992
 72 O    -1.29957    0.10303    1.50117
 73 Ti    2.75540   -0.11075    1.02246
 74 Ti    3.05379   -1.04245    1.04507
 75 Ti   -1.04127   -0.24676   -1.22775
 76 Ti   -1.27275   -0.62086   -2.08537
 77 O     0.25037    0.33102   -0.08361
 78 O     0.24798    0.25127   -0.33187
 79 O    -0.80084   -0.12510   -0.00746
 80 O    -0.80328    0.08636   -0.17930
 81 O     0.00010    0.35195   -0.83579
 82 O     0.21805    0.31523   -0.94789
 83 O     0.00226    0.00611   -0.00775
 84 O     0.01833    0.05467   -0.01712
 85 Ti    0.04338   -0.00144   -0.00945
 86 Ti    0.00864    0.00517    0.01441
 87 Ti   -0.00190    0.06585    0.01900
 88 Ti    0.04013    0.00584    0.04995
 89 O     0.04815   -0.02157   -0.02946
 90 O     0.02136    0.02501    0.02743
 91 O     0.02737    0.02577   -0.02075
 92 O     0.02976   -0.00278    0.04429
 93 O    -0.02688    0.07841   -0.04367
 94 O     0.01969    0.03081    0.00586
 95 V    -0.21260   -0.27438    0.06575
 96 O    -0.29899   -0.10391    0.20788
 97 O    -0.01917   -0.18335   -0.00352
 98 O     0.07876   -0.29083    0.04296
 99 V     0.27786   -1.75175    0.23020
100 O    -0.75649   -1.33278   -0.01370
101 O    -0.11566   -0.02161    0.01655
102 O     1.20752   -0.84670    0.38834
103 H     0.29492   -0.33303   -0.15937
104 H    -0.92170    3.17456    0.56575

System changes: positions 

Initializing position-dependent things.

Density initialized from wave functions
          .------------------------.  
         /|                        |  
        / |                        |  
       /  |                        |  
      /   |                        |  
     /    |                        |  
    /     |                        |  
   /      |                        |  
  /       |                        |  
 *        |                        |  
 |        |                        |  
 |        |                        |  
 |        |                        |  
 |        O       O        O       |  
 |        |   TO      O  H  O      |  
 |     OO |    OV  O      Oi  V  Ti|  
 |     H  | TO     Oi          O   |  
 |        |      O     OTiO   OTi  |  
 |        OTi               O      |  
 |        OTi   OTO  O O O  Tii    |  
 |  O  O  |O  TiTi   Tii   O  O  O |  
 |      Tii    OO    OO   O        |  
 |      OO| OO    OTii    Tii      |  
 |   O Ti | Tii     O   OO     O   |  
 |    O   |O     OOTi    Oi        |  
 |  Ti    TO   O  O    O     O     |  
 |  O    O|     Ti    Ti           |  
 |       Ti         O      O       |  
 |        |  O                     |  
 |        .------------------------.  
 |       /                        /   
 |      /                        /    
 |     /                        /     
 |    /                        /      
 |   /                        /       
 |  /                        /        
 | /                        /         
 |/                        /          
 *------------------------*           

Positions:
   0 O      9.980185    2.844521    7.396465    ( 0.0000,  0.0000,  0.0000)
   1 O      4.767913    0.962098    7.420913    ( 0.0000,  0.0000,  0.0000)
   2 Ti     2.985668    0.961254    8.317936    ( 0.0000,  0.0000,  0.0000)
   3 Ti     8.204778    2.787675    8.278517    ( 0.0000,  0.0000,  0.0000)
   4 Ti     0.635819    2.840589    8.985048    ( 0.0000,  0.0000,  0.0000)
   5 Ti     5.863284    0.927962    8.948246    ( 0.0000,  0.0000,  0.0000)
   6 O      1.084245    0.960152    8.932879    ( 0.0000,  0.0000,  0.0000)
   7 O      6.331546    2.840471    8.934380    ( 0.0000,  0.0000,  0.0000)
   8 O      9.249550    2.799874    9.824868    ( 0.0000,  0.0000,  0.0000)
   9 O      4.065677    0.960502    9.843539    ( 0.0000,  0.0000,  0.0000)
  10 O      7.765556    0.918512    8.326000    ( 0.0000,  0.0000,  0.0000)
  11 O      2.557918    2.892930    8.364612    ( 0.0000,  0.0000,  0.0000)
  12 O      1.086752    2.881209   11.026778    ( 0.0000,  0.0000,  0.0000)
  13 O      6.268723    0.934172   10.962378    ( 0.0000,  0.0000,  0.0000)
  14 Ti     4.408363    0.976361   11.945263    ( 0.0000,  0.0000,  0.0000)
  15 Ti     9.572948    2.819953   11.968172    ( 0.0000,  0.0000,  0.0000)
  16 Ti     2.004425    2.850971   12.553620    ( 0.0000,  0.0000,  0.0000)
  17 Ti     7.210230    0.939389   12.474586    ( 0.0000,  0.0000,  0.0000)
  18 O      2.572167    0.993024   12.769877    ( 0.0000,  0.0000,  0.0000)
  19 O      7.697900    2.855400   12.644710    ( 0.0000,  0.0000,  0.0000)
  20 O      0.366433    2.856067   13.410351    ( 0.0000,  0.0000,  0.0000)
  21 O      5.577163    1.023457   13.355180    ( 0.0000,  0.0000,  0.0000)
  22 O      9.192176    0.947884   11.983936    ( 0.0000,  0.0000,  0.0000)
  23 O      3.965652    2.924418   11.862448    ( 0.0000,  0.0000,  0.0000)
  24 O      9.991370    6.703855    7.368943    ( 0.0000,  0.0000,  0.0000)
  25 O      4.577087    4.781638    8.034107    ( 0.0000,  0.0000,  0.0000)
  26 Ti     2.755852    4.781525    7.969748    ( 0.0000,  0.0000,  0.0000)
  27 Ti     8.187997    6.727660    8.231071    ( 0.0000,  0.0000,  0.0000)
  28 Ti     0.672754    6.691601    9.120437    ( 0.0000,  0.0000,  0.0000)
  29 Ti     6.080332    4.762402    9.073394    ( 0.0000,  0.0000,  0.0000)
  30 O      1.046974    4.772222    8.929680    ( 0.0000,  0.0000,  0.0000)
  31 O      6.352271    6.700411    8.941918    ( 0.0000,  0.0000,  0.0000)
  32 O      9.243059    6.722817    9.788596    ( 0.0000,  0.0000,  0.0000)
  33 O      7.829286    4.769571    8.311283    ( 0.0000,  0.0000,  0.0000)
  34 O      2.552542    6.657923    8.364551    ( 0.0000,  0.0000,  0.0000)
  35 O      1.025112    6.560175   11.149839    ( 0.0000,  0.0000,  0.0000)
  36 O      5.961471    4.745430   10.990283    ( 0.0000,  0.0000,  0.0000)
  37 Ti     4.376695    4.705795   12.347701    ( 0.0000,  0.0000,  0.0000)
  38 Ti     9.561852    6.630784   11.867274    ( 0.0000,  0.0000,  0.0000)
  39 Ti     2.296437    6.750554   12.702010    ( 0.0000,  0.0000,  0.0000)
  40 Ti     7.214495    4.789240   12.399932    ( 0.0000,  0.0000,  0.0000)
  41 O      2.547846    4.719928   13.030613    ( 0.0000,  0.0000,  0.0000)
  42 O      7.606106    6.623818   12.507554    ( 0.0000,  0.0000,  0.0000)
  43 O     -0.075408    6.703018   13.529234    ( 0.0000,  0.0000,  0.0000)
  44 O      5.712818    4.721785   13.538594    ( 0.0000,  0.0000,  0.0000)
  45 O      9.100109    4.722820   11.807906    ( 0.0000,  0.0000,  0.0000)
  46 O      3.908549    6.506142   11.808288    ( 0.0000,  0.0000,  0.0000)
  47 O      9.964595   10.524965    7.385076    ( 0.0000,  0.0000,  0.0000)
  48 O      4.815800    8.594439    7.385821    ( 0.0000,  0.0000,  0.0000)
  49 Ti     2.938692    8.598153    8.220795    ( 0.0000,  0.0000,  0.0000)
  50 Ti     8.151981   10.570147    8.246653    ( 0.0000,  0.0000,  0.0000)
  51 Ti     0.697144   10.528620    9.089260    ( 0.0000,  0.0000,  0.0000)
  52 Ti     5.904985    8.613528    8.916619    ( 0.0000,  0.0000,  0.0000)
  53 O      1.106624    8.590064    8.968799    ( 0.0000,  0.0000,  0.0000)
  54 O      6.277899   10.520684    8.932675    ( 0.0000,  0.0000,  0.0000)
  55 O      9.239512   10.505901    9.787166    ( 0.0000,  0.0000,  0.0000)
  56 O      4.070086    8.548203    9.743966    ( 0.0000,  0.0000,  0.0000)
  57 O      7.774125    8.623501    8.290909    ( 0.0000,  0.0000,  0.0000)
  58 O      2.586216   10.493002    8.364186    ( 0.0000,  0.0000,  0.0000)
  59 O      1.027777   10.618255   11.088344    ( 0.0000,  0.0000,  0.0000)
  60 O      6.203264    8.602254   10.954230    ( 0.0000,  0.0000,  0.0000)
  61 Ti     4.349207    8.791217   11.598155    ( 0.0000,  0.0000,  0.0000)
  62 Ti     9.667673   10.508889   11.892470    ( 0.0000,  0.0000,  0.0000)
  63 Ti     2.093348   10.522431   12.842371    ( 0.0000,  0.0000,  0.0000)
  64 Ti     7.338850    8.662291   12.500472    ( 0.0000,  0.0000,  0.0000)
  65 O      2.492636    8.634885   12.216057    ( 0.0000,  0.0000,  0.0000)
  66 O      7.627575   10.586130   12.358210    ( 0.0000,  0.0000,  0.0000)
  67 O      0.389048   10.279839   13.491847    ( 0.0000,  0.0000,  0.0000)
  68 O      5.419700    8.647905   13.316492    ( 0.0000,  0.0000,  0.0000)
  69 O      9.133698    8.592051   11.828664    ( 0.0000,  0.0000,  0.0000)
  70 O      4.038338   10.583906   11.738885    ( 0.0000,  0.0000,  0.0000)
  71 O      9.941208   14.330547    7.418288    ( 0.0000,  0.0000,  0.0000)
  72 O      4.775420   12.414051    7.436483    ( 0.0000,  0.0000,  0.0000)
  73 Ti     3.008129   12.424318    8.306545    ( 0.0000,  0.0000,  0.0000)
  74 Ti     8.167684   14.360686    8.310916    ( 0.0000,  0.0000,  0.0000)
  75 Ti     0.667845   14.325759    8.963518    ( 0.0000,  0.0000,  0.0000)
  76 Ti     5.854739   12.451919    9.032147    ( 0.0000,  0.0000,  0.0000)
  77 O      1.088510   12.413214    8.932575    ( 0.0000,  0.0000,  0.0000)
  78 O      6.253488   14.340663    8.925934    ( 0.0000,  0.0000,  0.0000)
  79 O      9.235304   14.370868    9.845020    ( 0.0000,  0.0000,  0.0000)
  80 O      4.052267   12.460180    9.852855    ( 0.0000,  0.0000,  0.0000)
  81 O      7.761875   12.441132    8.367417    ( 0.0000,  0.0000,  0.0000)
  82 O      2.572719   14.330054    8.355956    ( 0.0000,  0.0000,  0.0000)
  83 O      1.094961   14.347852   11.015733    ( 0.0000,  0.0000,  0.0000)
  84 O      6.235017   12.589514   10.964999    ( 0.0000,  0.0000,  0.0000)
  85 Ti     4.397434   12.479541   11.949902    ( 0.0000,  0.0000,  0.0000)
  86 Ti     9.606969   14.314098   11.994631    ( 0.0000,  0.0000,  0.0000)
  87 Ti     2.040741   14.346274   12.525967    ( 0.0000,  0.0000,  0.0000)
  88 Ti     7.210040   12.432476   12.449491    ( 0.0000,  0.0000,  0.0000)
  89 O      2.555971   12.467896   12.748518    ( 0.0000,  0.0000,  0.0000)
  90 O      7.737163   14.344507   12.733499    ( 0.0000,  0.0000,  0.0000)
  91 O      0.429942   14.362604   13.418897    ( 0.0000,  0.0000,  0.0000)
  92 O      5.590701   12.394274   13.348680    ( 0.0000,  0.0000,  0.0000)
  93 O      9.251248   12.425902   12.042865    ( 0.0000,  0.0000,  0.0000)
  94 O      4.009453   14.383303   11.972818    ( 0.0000,  0.0000,  0.0000)
  95 V      4.156707    8.782212   14.633778    ( 0.0000,  0.0000,  0.0000)
  96 O      3.204817   10.234776   14.326769    ( 0.0000,  0.0000,  0.0000)
  97 O      3.133645    7.344359   14.331103    ( 0.0000,  0.0000,  0.0000)
  98 O      4.808985    8.914070   16.082712    ( 0.0000,  0.0000,  0.0000)
  99 V     10.020520    7.734525   15.162206    ( 0.0000,  0.0000,  0.0000)
 100 O     11.389122    6.514380   15.719415    ( 0.0000,  0.0000,  0.0000)
 101 O      8.209469    8.870238   14.241473    ( 0.0000,  0.0000,  0.0000)
 102 O      8.784151    7.704587   16.180877    ( 0.0000,  0.0000,  0.0000)
 103 H      7.633139    9.155633   14.987417    ( 0.0000,  0.0000,  0.0000)
 104 H      1.303206    5.507689   15.475007    ( 0.0000,  0.0000,  0.0000)

Unit cell:
           periodic     x           y           z      points  spacing
  1. axis:    yes   10.341746    0.000000    0.000000    54     0.1915
  2. axis:    yes   -0.000000   15.289380    0.000000    80     0.1911
  3. axis:    yes    0.000000    0.000000   23.497201   125     0.1880

  Lengths:  10.341746  15.289380  23.497201
  Angles:   90.000000  90.000000  90.000000

Effective grid spacing dv^(1/3) = 0.1902

                     log10-error:    total        iterations:
           time      wfs    density  energy       fermi  poisson
iter:   1  16:55:09  -3.27   +inf  -855.431019    3             
iter:   2  16:55:40  -4.12  -3.55  -855.424314    3             
iter:   3  16:56:12  -4.79  -3.42  -855.422376    3             
iter:   4  16:56:43  -5.23  -3.76  -855.423875    3             
iter:   5  16:57:15  -4.89  -3.76  -855.421502    3             
iter:   6  16:57:47  -5.53  -4.07  -855.422465    2             
iter:   7  16:58:18  -5.85  -4.13  -855.422060    3             
iter:   8  16:58:49  -6.24  -4.31  -855.421990    2             
iter:   9  16:59:21  -6.48  -4.48  -855.422018    2             
iter:  10  16:59:53  -6.65  -4.57  -855.421979    2             
iter:  11  17:00:24  -7.04  -4.61  -855.422192    2             
iter:  12  17:00:55  -7.23  -4.70  -855.421838    2             
