
  ___ ___ ___ _ _ _  
 |   |   |_  | | | | 
 | | | | | . | | | | 
 |__ |  _|___|_____|  1.5.1
 |___|_|             

User:   siva@s84n45.grendel.cscaa.dk
Date:   Thu Feb 27 10:51:26 2020
Arch:   x86_64
Pid:    2090
Python: 3.6.3
gpaw:   /home/siva/gpaw-1.5.1/gpaw
_gpaw:  /home/siva/gpaw-1.5.1/build/bin.linux-x86_64-3.6/gpaw-python
ase:    /home/siva/env1.5/lib/python3.6/site-packages/ase (version 3.17.0)
numpy:  /home/siva/env1.5/lib/python3.6/site-packages/numpy (version 1.16.0)
scipy:  /home/siva/env1.5/lib/python3.6/site-packages/scipy (version 1.2.0)
units:  Angstrom and eV
cores:  100
Extra parameters: {'blacs': True}

Input parameters:
  basis: dzp
  kpts: [2 2 1]
  maxiter: 99
  mode: {ecut: 500.0,
         gammacentered: False,
         name: pw}
  xc: PBE

System changes: positions, numbers, cell, pbc, initial_charges, initial_magmoms 

Initialize ...

O-setup:
  name: Oxygen
  id: 32ecd46bf208036f09c70b0ec9a88b78
  Z: 8
  valence: 6
  core: 2
  charge: 0.0
  file: /home/wido/sw/gpaw/basis/gpaw-setups-0.9.20000/O.PBE.gz
  cutoffs: 0.67(comp), 1.17(filt), 0.83(core), lmax=2
  valence states:
                energy  radius
    2s(2.00)   -23.961   0.688
    2p(4.00)    -9.029   0.598
    *s           3.251   0.688
    *p          18.182   0.598
    *d           0.000   0.619

  LCAO basis set for O:
    Name: dzp
    File: /home/wido/sw/gpaw/basis/gpaw-setups-0.9.20000/O.dzp.basis.gz
    Number of radial functions: 5
    Number of spherical harmonics: 13
      l=0, rc=4.3438 Bohr: 2s-sz confined orbital
      l=1, rc=5.3906 Bohr: 2p-sz confined orbital
      l=0, rc=2.2969 Bohr: 2s-dz split-valence wave
      l=1, rc=2.8906 Bohr: 2p-dz split-valence wave
      l=2, rc=5.3906 Bohr: d-type Gaussian polarization

Ti-setup:
  name: Titanium
  id: d282db07e62ae71292040bf25b25ccdd
  Z: 22
  valence: 12
  core: 10
  charge: 0.0
  file: /home/wido/sw/gpaw/basis/gpaw-setups-0.9.20000/Ti.PBE.gz
  cutoffs: 1.22(comp), 2.23(filt), 1.02(core), lmax=2
  valence states:
                energy  radius
    3s(2.00)   -62.623   1.270
    4s(2.00)    -4.466   1.270
    3p(6.00)   -38.862   1.058
    4p(0.00)    -1.466   1.058
    3d(2.00)    -4.258   1.058
    *d          22.953   1.058

  LCAO basis set for Ti:
    Name: dzp
    File: /home/wido/sw/gpaw/basis/gpaw-setups-0.9.20000/Ti.dzp.basis.gz
    Number of radial functions: 11
    Number of spherical harmonics: 29
      l=0, rc=3.4375 Bohr: 3s-sz confined orbital
      l=0, rc=9.9062 Bohr: 4s-sz confined orbital
      l=1, rc=3.8906 Bohr: 3p-sz confined orbital
      l=1, rc=13.1094 Bohr: 4p-sz confined orbital
      l=2, rc=6.6250 Bohr: 3d-sz confined orbital
      l=0, rc=2.1406 Bohr: 3s-dz split-valence wave
      l=0, rc=6.0156 Bohr: 4s-dz split-valence wave
      l=1, rc=2.3125 Bohr: 3p-dz split-valence wave
      l=1, rc=8.1094 Bohr: 4p-dz split-valence wave
      l=2, rc=3.8594 Bohr: 3d-dz split-valence wave
      l=1, rc=9.9062 Bohr: p-type Gaussian polarization

V-setup:
  name: Vanadium
  id: a8354638d66c808f8c867a10b63fd727
  Z: 23
  valence: 13
  core: 10
  charge: 0.0
  file: /home/wido/sw/gpaw/basis/gpaw-setups-0.9.20000/V.PBE.gz
  cutoffs: 1.19(comp), 2.14(filt), 0.96(core), lmax=2
  valence states:
                energy  radius
    3s(2.00)   -70.222   1.254
    4s(2.00)    -4.702   1.254
    3p(6.00)   -44.043   1.281
    4p(0.00)    -1.444   1.281
    3d(3.00)    -5.164   1.169
    *d          22.047   1.169

  LCAO basis set for V:
    Name: dzp
    File: /home/wido/sw/gpaw/basis/gpaw-setups-0.9.20000/V.dzp.basis.gz
    Number of radial functions: 11
    Number of spherical harmonics: 29
      l=0, rc=3.2656 Bohr: 3s-sz confined orbital
      l=0, rc=9.5312 Bohr: 4s-sz confined orbital
      l=1, rc=3.6719 Bohr: 3p-sz confined orbital
      l=1, rc=12.8750 Bohr: 4p-sz confined orbital
      l=2, rc=6.0938 Bohr: 3d-sz confined orbital
      l=0, rc=2.0625 Bohr: 3s-dz split-valence wave
      l=0, rc=5.7656 Bohr: 4s-dz split-valence wave
      l=1, rc=2.4062 Bohr: 3p-dz split-valence wave
      l=1, rc=7.8906 Bohr: 4p-dz split-valence wave
      l=2, rc=3.6562 Bohr: 3d-dz split-valence wave
      l=1, rc=9.5312 Bohr: p-type Gaussian polarization

H-setup:
  name: Hydrogen
  id: d65de229564ff8ea4db303e23b6d1ecf
  Z: 1
  valence: 1
  core: 0
  charge: 0.0
  file: /home/wido/sw/gpaw/basis/gpaw-setups-0.9.20000/H.PBE.gz
  cutoffs: 0.48(comp), 0.85(filt), 0.53(core), lmax=2
  valence states:
                energy  radius
    1s(1.00)    -6.494   0.476
    *s          20.717   0.476
    *p           0.000   0.476

  LCAO basis set for H:
    Name: dzp
    File: /home/wido/sw/gpaw/basis/gpaw-setups-0.9.20000/H.dzp.basis.gz
    Number of radial functions: 3
    Number of spherical harmonics: 5
      l=0, rc=6.4219 Bohr: 1s-sz confined orbital
      l=0, rc=3.6094 Bohr: 1s-dz split-valence wave
      l=1, rc=6.4219 Bohr: p-type Gaussian polarization

Reference energy: -935653.237240

Spin-paired calculation

Occupation numbers:
  Fermi-Dirac: width=0.1000 eV

Convergence criteria:
  Maximum total energy change: 0.0005 eV / electron
  Maximum integral of absolute density change: 0.0001 electrons
  Maximum integral of absolute eigenstate change: 4e-08 eV^2
  Maximum number of iterations: 99

Symmetries present (total): 1

  ( 1  0  0)
  ( 0  1  0)
  ( 0  0  1)

4 k-points: 2 x 2 x 1 Monkhorst-Pack grid
2 k-points in the irreducible part of the Brillouin zone
       k-points in crystal coordinates                weights
   0:     0.25000000   -0.25000000    0.00000000          2/4
   1:     0.25000000    0.25000000    0.00000000          2/4

Wave functions: Plane wave expansion
  Cutoff energy: 500.000 eV
  Number of coefficients (min, max): 94343, 94343
  Pulay-stress correction: 0.000000 eV/Ang^3 (de/decut=0.000000)
  Using FFTW library
  ScaLapack parameters: grid=1x1, blocksize=None
  Wavefunction extrapolation:
    Improved wavefunction reuse through dual PAW basis 

Eigensolver
   Davidson(niter=2, smin=None, normalize=True) 

Densities:
  Coarse grid: 54*80*125 grid
  Fine grid: 108*160*250 grid
  Total Charge: 0.000000 

Density mixing:
  Method: separate
  Backend: pulay
  Linear mixing parameter: 0.05
  Mixing with 5 old densities
  Damping of long wave oscillations: 50 

Hamiltonian:
  XC and Coulomb potentials evaluated on a 108*160*250 grid
  Using the PBE Exchange-Correlation functional
 

XC parameters: PBE with 2 nearest neighbor stencil

Memory estimate:
  Process memory now: 331.16 MiB
  Calculator: 1549.87 MiB
    Density: 33.11 MiB
      Arrays: 10.71 MiB
      Localized functions: 18.27 MiB
      Mixer: 4.12 MiB
    Hamiltonian: 7.53 MiB
      Arrays: 7.00 MiB
      XC: 0.00 MiB
      Poisson: 0.00 MiB
      vbar: 0.53 MiB
    Wavefunctions: 1509.23 MiB
      Arrays psit_nG: 719.78 MiB
      Eigensolver: 765.14 MiB
      Projections: 1.16 MiB
      Projectors: 2.09 MiB
      PW-descriptor: 21.07 MiB

Total number of cores used: 20
Parallelization over k-points: 2
Domain decomposition: 1 x 2 x 5

Number of atoms: 105
Number of atomic orbitals: 1893
Number of bands in calculation: 500
Bands to converge: occupied states only
Number of valence electrons: 826

... initialized

Initializing position-dependent things.

Density initialized from atomic densities
Creating initial wave functions:
  500 bands from LCAO basis set

          .------------------------.  
         /|                        |  
        / |                        |  
       /  |                        |  
      /   |                        |  
     /    |                        |  
    /     |                        |  
   /      |                        |  
  /       |                        |  
 *        |                        |  
 |        |                        |  
 |        |                        |  
 |        |                        |  
 |        O      O            O    |  
 |        |   Hi      O  H  OV O   |  
 |      O |    OV  O     OTi     Ti|  
 |        | Oi     Oi     O    O   |  
 |    O   |      O     OTi    TiO  |  
 |        TiO               O      |  
 |        OTi   TiO  O OiO   Ti    |  
 |  O  O  |O  TiTi   Ti    OTiO  O |  
 |      Tii    OO    OO   O        |  
 |      OO| OO    OTii    Tii      |  
 |   O Ti | Tii     O   OO     O   |  
 |    O   |O     OOTi    Oi        |  
 |  Ti    TO   O  O    O     O     |  
 |  O    O|     Ti    Ti           |  
 |       Ti         O      O       |  
 |        |  O                     |  
 |        .------------------------.  
 |       /                        /   
 |      /                        /    
 |     /                        /     
 |    /                        /      
 |   /                        /       
 |  /                        /        
 | /                        /         
 |/                        /          
 *------------------------*           

Positions:
   0 O      9.981627    2.835891    7.394815    ( 0.0000,  0.0000,  0.0000)
   1 O      4.772672    0.956313    7.415080    ( 0.0000,  0.0000,  0.0000)
   2 Ti     2.989016    0.956704    8.311490    ( 0.0000,  0.0000,  0.0000)
   3 Ti     8.209262    2.779445    8.273415    ( 0.0000,  0.0000,  0.0000)
   4 Ti     0.642387    2.838450    8.979866    ( 0.0000,  0.0000,  0.0000)
   5 Ti     5.864992    0.921288    8.943022    ( 0.0000,  0.0000,  0.0000)
   6 O      1.090173    0.959092    8.924269    ( 0.0000,  0.0000,  0.0000)
   7 O      6.330723    2.837142    8.932811    ( 0.0000,  0.0000,  0.0000)
   8 O      9.247781    2.808803    9.824244    ( 0.0000,  0.0000,  0.0000)
   9 O      4.068825    0.950342    9.839484    ( 0.0000,  0.0000,  0.0000)
  10 O      7.769774    0.913966    8.324746    ( 0.0000,  0.0000,  0.0000)
  11 O      2.569841    2.891634    8.367207    ( 0.0000,  0.0000,  0.0000)
  12 O      1.091100    2.890326   10.984446    ( 0.0000,  0.0000,  0.0000)
  13 O      6.281009    0.919510   10.943808    ( 0.0000,  0.0000,  0.0000)
  14 Ti     4.389995    0.973292   11.899874    ( 0.0000,  0.0000,  0.0000)
  15 Ti     9.569899    2.828312   11.890218    ( 0.0000,  0.0000,  0.0000)
  16 Ti     2.016366    2.846473   12.509097    ( 0.0000,  0.0000,  0.0000)
  17 Ti     7.189799    0.931265   12.468455    ( 0.0000,  0.0000,  0.0000)
  18 O      2.573484    0.971420   12.703602    ( 0.0000,  0.0000,  0.0000)
  19 O      7.701992    2.862314   12.652566    ( 0.0000,  0.0000,  0.0000)
  20 O      0.383551    2.835443   13.380055    ( 0.0000,  0.0000,  0.0000)
  21 O      5.559324    1.026811   13.329587    ( 0.0000,  0.0000,  0.0000)
  22 O      9.171086    0.949799   11.940090    ( 0.0000,  0.0000,  0.0000)
  23 O      3.957639    2.930163   11.840425    ( 0.0000,  0.0000,  0.0000)
  24 O      9.991171    6.703194    7.375660    ( 0.0000,  0.0000,  0.0000)
  25 O      4.597236    4.776691    7.985632    ( 0.0000,  0.0000,  0.0000)
  26 Ti     2.765029    4.778732    7.970356    ( 0.0000,  0.0000,  0.0000)
  27 Ti     8.201050    6.730463    8.240706    ( 0.0000,  0.0000,  0.0000)
  28 Ti     0.685359    6.687142    9.131194    ( 0.0000,  0.0000,  0.0000)
  29 Ti     6.085628    4.757586    9.047069    ( 0.0000,  0.0000,  0.0000)
  30 O      1.053778    4.770971    8.927304    ( 0.0000,  0.0000,  0.0000)
  31 O      6.349787    6.695178    8.941573    ( 0.0000,  0.0000,  0.0000)
  32 O      9.245076    6.707017    9.798899    ( 0.0000,  0.0000,  0.0000)
  33 O      7.822195    4.765508    8.285777    ( 0.0000,  0.0000,  0.0000)
  34 O      2.569098    6.653213    8.372532    ( 0.0000,  0.0000,  0.0000)
  35 O      1.070520    6.590039   11.070786    ( 0.0000,  0.0000,  0.0000)
  36 O      5.942956    4.740933   10.937410    ( 0.0000,  0.0000,  0.0000)
  37 Ti     4.382930    4.783946   12.257268    ( 0.0000,  0.0000,  0.0000)
  38 Ti     9.505435    6.664787   11.806428    ( 0.0000,  0.0000,  0.0000)
  39 Ti     2.051894    6.644151   12.756816    ( 0.0000,  0.0000,  0.0000)
  40 Ti     7.275065    4.738402   12.590339    ( 0.0000,  0.0000,  0.0000)
  41 O      2.541180    4.718193   12.954298    ( 0.0000,  0.0000,  0.0000)
  42 O      7.651243    6.637500   12.612964    ( 0.0000,  0.0000,  0.0000)
  43 O      0.350575    6.684975   13.453885    ( 0.0000,  0.0000,  0.0000)
  44 O      5.674035    4.778615   13.508104    ( 0.0000,  0.0000,  0.0000)
  45 O      9.101407    4.766307   11.814035    ( 0.0000,  0.0000,  0.0000)
  46 O      3.942772    6.559347   11.785249    ( 0.0000,  0.0000,  0.0000)
  47 O      9.971570   10.521332    7.371311    ( 0.0000,  0.0000,  0.0000)
  48 O      4.822853    8.590322    7.383584    ( 0.0000,  0.0000,  0.0000)
  49 Ti     2.942253    8.594968    8.214711    ( 0.0000,  0.0000,  0.0000)
  50 Ti     8.146390   10.567872    8.225039    ( 0.0000,  0.0000,  0.0000)
  51 Ti     0.698810   10.528485    9.064092    ( 0.0000,  0.0000,  0.0000)
  52 Ti     5.907172    8.604172    8.913910    ( 0.0000,  0.0000,  0.0000)
  53 O      1.112935    8.584826    8.958651    ( 0.0000,  0.0000,  0.0000)
  54 O      6.285236   10.514871    8.934645    ( 0.0000,  0.0000,  0.0000)
  55 O      9.245250   10.483191    9.768210    ( 0.0000,  0.0000,  0.0000)
  56 O      4.073738    8.557930    9.742116    ( 0.0000,  0.0000,  0.0000)
  57 O      7.778285    8.619007    8.294600    ( 0.0000,  0.0000,  0.0000)
  58 O      2.592027   10.490499    8.360042    ( 0.0000,  0.0000,  0.0000)
  59 O      1.083167   10.560545   11.019263    ( 0.0000,  0.0000,  0.0000)
  60 O      6.221686    8.571726   11.009030    ( 0.0000,  0.0000,  0.0000)
  61 Ti     4.269770    8.604380   11.625395    ( 0.0000,  0.0000,  0.0000)
  62 Ti     9.449364   10.591814   11.710213    ( 0.0000,  0.0000,  0.0000)
  63 Ti     2.067144   10.551365   12.644679    ( 0.0000,  0.0000,  0.0000)
  64 Ti     7.222939    8.564627   12.527930    ( 0.0000,  0.0000,  0.0000)
  65 O      2.518573    8.578098   12.414100    ( 0.0000,  0.0000,  0.0000)
  66 O      7.651769   10.511945   12.470907    ( 0.0000,  0.0000,  0.0000)
  67 O      0.388926   10.527464   13.399013    ( 0.0000,  0.0000,  0.0000)
  68 O      5.309996    8.554372   13.400668    ( 0.0000,  0.0000,  0.0000)
  69 O      9.055210    8.560860   11.866849    ( 0.0000,  0.0000,  0.0000)
  70 O      4.021926   10.503182   11.791109    ( 0.0000,  0.0000,  0.0000)
  71 O      9.946164   14.323706    7.409435    ( 0.0000,  0.0000,  0.0000)
  72 O      4.782677   12.409006    7.440233    ( 0.0000,  0.0000,  0.0000)
  73 Ti     3.023609   12.421072    8.299429    ( 0.0000,  0.0000,  0.0000)
  74 Ti     8.171237   14.356381    8.301328    ( 0.0000,  0.0000,  0.0000)
  75 Ti     0.672879   14.318828    8.956928    ( 0.0000,  0.0000,  0.0000)
  76 Ti     5.863475   12.448168    9.057113    ( 0.0000,  0.0000,  0.0000)
  77 O      1.091778   12.408602    8.922494    ( 0.0000,  0.0000,  0.0000)
  78 O      6.260329   14.334276    8.923741    ( 0.0000,  0.0000,  0.0000)
  79 O      9.242016   14.375414    9.835716    ( 0.0000,  0.0000,  0.0000)
  80 O      4.053669   12.455358    9.857066    ( 0.0000,  0.0000,  0.0000)
  81 O      7.768743   12.434280    8.370210    ( 0.0000,  0.0000,  0.0000)
  82 O      2.578893   14.325138    8.352451    ( 0.0000,  0.0000,  0.0000)
  83 O      1.103938   14.328630   10.961363    ( 0.0000,  0.0000,  0.0000)
  84 O      6.261929   12.479637   11.017426    ( 0.0000,  0.0000,  0.0000)
  85 Ti     4.438669   12.412942   11.905622    ( 0.0000,  0.0000,  0.0000)
  86 Ti     9.576990   14.368706   11.906182    ( 0.0000,  0.0000,  0.0000)
  87 Ti     2.048046   14.331525   12.470553    ( 0.0000,  0.0000,  0.0000)
  88 Ti     7.210885   12.472881   12.678596    ( 0.0000,  0.0000,  0.0000)
  89 O      2.580308   12.428227   12.705536    ( 0.0000,  0.0000,  0.0000)
  90 O      7.742088   14.353505   12.713842    ( 0.0000,  0.0000,  0.0000)
  91 O      0.431405   14.318844   13.358940    ( 0.0000,  0.0000,  0.0000)
  92 O      5.541465   12.390390   13.407943    ( 0.0000,  0.0000,  0.0000)
  93 O      9.186340   12.434029   11.817478    ( 0.0000,  0.0000,  0.0000)
  94 O      4.031724   14.334817   11.940181    ( 0.0000,  0.0000,  0.0000)
  95 V      3.986178    8.556058   14.659117    ( 0.0000,  0.0000,  0.0000)
  96 O      2.998243   10.085759   14.498243    ( 0.0000,  0.0000,  0.0000)
  97 O      3.022293    7.077016   14.498641    ( 0.0000,  0.0000,  0.0000)
  98 O      4.617698    8.581753   16.120827    ( 0.0000,  0.0000,  0.0000)
  99 V      9.269299    9.248451   14.674796    ( 0.0000,  0.0000,  0.0000)
 100 O      9.684822   10.987629   14.476750    ( 0.0000,  0.0000,  0.0000)
 101 O      7.973712    8.708019   14.532930    ( 0.0000,  0.0000,  0.0000)
 102 O      9.786970    9.300528   16.125890    ( 0.0000,  0.0000,  0.0000)
 103 H      7.732837    8.754416   15.365086    ( 0.0000,  0.0000,  0.0000)
 104 H      2.976475    9.332708   15.256701    ( 0.0000,  0.0000,  0.0000)

Unit cell:
           periodic     x           y           z      points  spacing
  1. axis:    yes   10.341746    0.000000    0.000000    54     0.1915
  2. axis:    yes   -0.000000   15.289380    0.000000    80     0.1911
  3. axis:    yes    0.000000    0.000000   23.497201   125     0.1880

  Lengths:  10.341746  15.289380  23.497201
  Angles:   90.000000  90.000000  90.000000

Effective grid spacing dv^(1/3) = 0.1902

                     log10-error:    total        iterations:
           time      wfs    density  energy       fermi  poisson
iter:   1  10:53:23  -0.06   +inf  -963.693600    2             
iter:   2  10:53:55  -0.93  -0.95  -920.925134    34            
iter:   3  10:54:27  +0.46  -1.00  -856.755638    36            
iter:   4  10:54:57  -0.29  -1.27  -850.286533    35            
iter:   5  10:55:29  -0.80  -1.34  -858.591254    35            
iter:   6  10:56:00  -0.41  -1.27  -899.465279    37            
iter:   7  10:56:32  -0.71  -1.19  -848.137648    34            
iter:   8  10:57:03  -0.48  -1.38  -848.834348    2             
iter:   9  10:57:35  -1.79  -1.56  -847.453469    34            
iter:  10  10:58:06  -1.76  -1.55  -845.355164    35            
iter:  11  10:58:37  -1.49  -1.71  -845.708981    5             
iter:  12  10:59:08  -2.35  -1.88  -844.756253    4             
iter:  13  10:59:39  -2.02  -1.98  -844.596355    4             
iter:  14  11:00:10  -2.55  -2.22  -844.560072    3             
iter:  15  11:00:42  -2.95  -2.26  -844.506977    3             
iter:  16  11:01:14  -2.65  -2.31  -844.445798    3             
iter:  17  11:01:45  -2.87  -2.35  -844.370655    3             
iter:  18  11:02:16  -3.48  -2.54  -844.362350    3             
iter:  19  11:02:48  -3.51  -2.64  -844.354152    3             
iter:  20  11:03:20  -4.06  -2.84  -844.357762    3             
iter:  21  11:03:51  -4.02  -2.97  -844.346927    3             
iter:  22  11:04:22  -4.35  -3.13  -844.347222    2             
iter:  23  11:04:53  -4.53  -3.20  -844.344051    2             
iter:  24  11:05:25  -4.59  -3.24  -844.344723    3             
iter:  25  11:05:56  -5.28  -3.56  -844.344143    2             
iter:  26  11:06:27  -5.19  -3.65  -844.343523    3             
iter:  27  11:06:59  -5.84  -3.77  -844.344265    2             
iter:  28  11:07:30  -6.11  -3.91  -844.343938    2             
iter:  29  11:08:01  -6.16  -4.01  -844.344189    2             
iter:  30  11:08:32  -6.41  -4.19  -844.343958    2             
iter:  31  11:09:03  -6.74  -4.31  -844.344152    2             
iter:  32  11:09:34  -6.94  -4.47  -844.344111    2             
iter:  33  11:10:05  -7.05  -4.61  -844.344114    2             
iter:  34  11:10:37  -7.31  -4.79  -844.344123    2             
iter:  35  11:11:09  -7.49  -4.90  -844.344110    2             

Converged after 35 iterations.

Dipole moment: (3.952805, -0.592599, -0.696345) |e|*Ang

Energy contributions relative to reference atoms: (reference = -935653.237240)

Kinetic:       +694.872145
Potential:     -835.507418
External:        +0.000000
XC:            -709.297738
Entropy (-ST):   -0.709470
Local:           +5.943637
--------------------------
Free energy:   -844.698845
Extrapolated:  -844.344110

Fermi level: -1.21579

Showing all kpts
 Kpt  Band  Eigenvalues  Occupancy
  0   411     -1.33529    0.76764
  0   412     -1.18708    0.42872
  0   413     -1.13228    0.30256
  0   414     -1.09385    0.22804

  1   411     -1.33578    0.76850
  1   412     -1.18693    0.42834
  1   413     -1.14224    0.32399
  1   414     -1.07696    0.19969



Forces in eV/Ang:
  0 O    -1.49467   -0.07932    1.18803
  1 O    -1.09795    0.00698    1.20524
  2 Ti    2.51216   -0.04482    1.14429
  3 Ti    2.28648    0.54465    0.64846
  4 Ti    0.01181    0.15512   -1.36969
  5 Ti   -1.65741    0.27635   -1.17578
  6 O     0.26829   -0.15281   -0.17342
  7 O     0.30410    0.01659   -0.28747
  8 O    -1.14204   -0.07070    0.01508
  9 O    -0.71978    0.01396   -0.27507
 10 O     0.18627    0.47659   -1.07758
 11 O     0.22953   -0.19855   -0.86259
 12 O    -0.17642   -0.04538   -0.05866
 13 O     0.08369    0.00760    0.13063
 14 Ti   -0.08530    0.03647    0.05005
 15 Ti    0.69551    0.17887    0.65467
 16 Ti   -0.00141    0.26549    0.27918
 17 Ti   -0.34065    0.34842    0.01586
 18 O    -0.05817   -0.16143    0.01403
 19 O     0.07297   -0.11597    0.10073
 20 O    -0.38691    0.00788   -0.67033
 21 O     0.20964   -0.05254    0.06738
 22 O     0.10047    0.17702   -0.07999
 23 O     0.08749   -0.18500    0.07946
 24 O    -1.76255   -0.02640    1.99019
 25 O    -0.29809   -0.03307    0.04986
 26 Ti    0.17494    0.11313    0.56421
 27 Ti    3.49928    0.18128   -0.04538
 28 Ti   -0.11838    0.02382   -1.89055
 29 Ti   -0.54757    0.21268    0.49504
 30 O     0.15037   -0.13189   -0.10365
 31 O    -0.01420   -0.28429   -0.10782
 32 O    -1.29809    0.05630    0.76595
 33 O     0.03328   -0.28248   -0.83444
 34 O     0.26397    0.12165   -0.89878
 35 O    -0.54680   -0.00168   -0.33942
 36 O     0.71451   -0.00884    1.06719
 37 Ti   -0.07835    0.15642   -0.42366
 38 Ti    2.07759   -0.38256    0.87424
 39 Ti   -0.45888    0.02335    0.81965
 40 Ti   -1.37625   -0.03840   -1.85767
 41 O     0.07590   -0.18621   -0.12914
 42 O     0.01138    0.03971    0.28372
 43 O    -0.89788    0.39956   -0.91345
 44 O     0.17653    0.00605    0.56313
 45 O     0.17635   -0.15650    0.29206
 46 O     0.15954   -0.02214    0.10427
 47 O    -1.58445    0.07410    1.99152
 48 O    -1.07779   -0.03271    1.18608
 49 Ti    2.58382   -0.03635    1.07648
 50 Ti    3.32538   -0.35589    0.15502
 51 Ti   -0.48751   -0.07727   -2.34527
 52 Ti   -1.33454    0.03919   -1.36562
 53 O     0.25063    0.05463    0.05173
 54 O     0.09804    0.13602   -0.00793
 55 O    -1.22503    0.04035    1.02723
 56 O    -0.94023    0.04440   -0.14626
 57 O     0.20405    0.00844   -0.93445
 58 O     0.24336    0.01242   -0.90882
 59 O    -0.39397   -0.04579    0.33880
 60 O     0.12885   -0.09442    0.23938
 61 Ti   -0.12275   -0.27435    0.10911
 62 Ti    0.99514    0.38906   -0.40190
 63 Ti    1.04322   -0.01593   -1.08095
 64 Ti   -1.65560   -0.10961   -1.54488
 65 O    -0.04082    0.27640   -0.22645
 66 O    -0.26972    0.17737    0.52930
 67 O     0.40170   -1.59971   -2.01542
 68 O     0.52412    0.14294   -0.31080
 69 O     0.40407    0.47396    0.57632
 70 O    -0.14575    0.10449    0.33004
 71 O    -1.24618    0.04507    1.28406
 72 O    -1.26246    0.07398    1.57714
 73 Ti    2.66001   -0.09679    0.87811
 74 Ti    2.93813   -0.90758    0.81363
 75 Ti   -0.82389   -0.15749   -1.48562
 76 Ti   -1.15766   -0.48567   -1.69843
 77 O     0.16092    0.19747   -0.13869
 78 O     0.21964    0.03568   -0.22990
 79 O    -0.82666   -0.00649   -0.01564
 80 O    -0.61675   -0.03977   -0.10692
 81 O     0.05289    0.19147   -0.75613
 82 O     0.22028    0.27761   -0.96522
 83 O    -0.02026    0.10945    0.00666
 84 O     0.48857    0.10742    1.28064
 85 Ti   -0.22095    0.09109   -0.26461
 86 Ti    0.82498   -0.38108    0.21828
 87 Ti   -0.04495   -0.05443    0.14244
 88 Ti   -0.88101   -0.46345   -2.05976
 89 O    -0.10874   -0.07615    0.07981
 90 O    -0.18609   -0.36349    0.42891
 91 O    -0.20075    0.08224   -0.41136
 92 O     0.72654   -0.01799    0.25926
 93 O    -0.19948    0.01393    0.48430
 94 O    -0.02930    0.22719    0.04380
 95 V     5.12544   -6.33265   -3.95821
 96 O     0.00389   -0.67232    1.62902
 97 O     0.43267    1.12348   -0.06244
 98 O     0.11306    0.19302    0.65556
 99 V    27.66294   11.94241   -0.40745
100 O    -2.88729    1.32909    1.01786
101 O   -22.01544   -9.91856   -8.90485
102 O     0.41742   -1.66423    3.65691
103 H    -4.30486   -0.44853    8.23895
104 H    -5.69858    5.66793    2.27182

System changes: positions 

Initializing position-dependent things.

Density initialized from wave functions
          .------------------------.  
         /|                        |  
        / |                        |  
       /  |                        |  
      /   |                        |  
     /    |                        |  
    /     |                        |  
   /      |                        |  
  /       |                        |  
 *        |                        |  
 |        |                        |  
 |        |                        |  
 |        |                        |  
 |        O      O            O    |  
 |        |   Hi      O  H  OV O   |  
 |      O |    OV  O     OTi     Ti|  
 |        | Oi     Oi     O    O   |  
 |    O   |      O     Ti     TiO  |  
 |        TiO               O      |  
 |        OTi   TiO  O OiO   Ti    |  
 |  O  O  |O  TiTi   Ti    OTiO  O |  
 |      Tii    OO    OO   O        |  
 |      OO| OO    OTii    Tii      |  
 |   O Ti | Tii     O   OO     O   |  
 |    O   |O     OOTi    Oi        |  
 |  Ti    TO   O  O    O     O     |  
 |  O    O|     Ti    Ti           |  
 |       Ti         O      O       |  
 |        |  O                     |  
 |        .------------------------.  
 |       /                        /   
 |      /                        /    
 |     /                        /     
 |    /                        /      
 |   /                        /       
 |  /                        /        
 | /                        /         
 |/                        /          
 *------------------------*           

Positions:
   0 O      9.981627    2.835891    7.394815    ( 0.0000,  0.0000,  0.0000)
   1 O      4.772672    0.956313    7.415080    ( 0.0000,  0.0000,  0.0000)
   2 Ti     2.989016    0.956704    8.311490    ( 0.0000,  0.0000,  0.0000)
   3 Ti     8.209262    2.779445    8.273415    ( 0.0000,  0.0000,  0.0000)
   4 Ti     0.642387    2.838450    8.979866    ( 0.0000,  0.0000,  0.0000)
   5 Ti     5.864992    0.921288    8.943022    ( 0.0000,  0.0000,  0.0000)
   6 O      1.090173    0.959092    8.924269    ( 0.0000,  0.0000,  0.0000)
   7 O      6.330723    2.837142    8.932811    ( 0.0000,  0.0000,  0.0000)
   8 O      9.247781    2.808803    9.824244    ( 0.0000,  0.0000,  0.0000)
   9 O      4.068825    0.950342    9.839484    ( 0.0000,  0.0000,  0.0000)
  10 O      7.769774    0.913966    8.324746    ( 0.0000,  0.0000,  0.0000)
  11 O      2.569841    2.891634    8.367207    ( 0.0000,  0.0000,  0.0000)
  12 O      1.090873    2.890290   10.984375    ( 0.0000,  0.0000,  0.0000)
  13 O      6.281117    0.919534   10.943972    ( 0.0000,  0.0000,  0.0000)
  14 Ti     4.389897    0.973356   11.899947    ( 0.0000,  0.0000,  0.0000)
  15 Ti     9.570751    2.828533   11.891005    ( 0.0000,  0.0000,  0.0000)
  16 Ti     2.016361    2.846826   12.509445    ( 0.0000,  0.0000,  0.0000)
  17 Ti     7.189383    0.931714   12.468478    ( 0.0000,  0.0000,  0.0000)
  18 O      2.573397    0.971223   12.703612    ( 0.0000,  0.0000,  0.0000)
  19 O      7.702112    2.862164   12.652741    ( 0.0000,  0.0000,  0.0000)
  20 O      0.383064    2.835473   13.379230    ( 0.0000,  0.0000,  0.0000)
  21 O      5.559598    1.026765   13.329678    ( 0.0000,  0.0000,  0.0000)
  22 O      9.171208    0.950021   11.939961    ( 0.0000,  0.0000,  0.0000)
  23 O      3.957745    2.929922   11.840578    ( 0.0000,  0.0000,  0.0000)
  24 O      9.991171    6.703194    7.375660    ( 0.0000,  0.0000,  0.0000)
  25 O      4.597236    4.776691    7.985632    ( 0.0000,  0.0000,  0.0000)
  26 Ti     2.765029    4.778732    7.970356    ( 0.0000,  0.0000,  0.0000)
  27 Ti     8.201050    6.730463    8.240706    ( 0.0000,  0.0000,  0.0000)
  28 Ti     0.685359    6.687142    9.131194    ( 0.0000,  0.0000,  0.0000)
  29 Ti     6.085628    4.757586    9.047069    ( 0.0000,  0.0000,  0.0000)
  30 O      1.053778    4.770971    8.927304    ( 0.0000,  0.0000,  0.0000)
  31 O      6.349787    6.695178    8.941573    ( 0.0000,  0.0000,  0.0000)
  32 O      9.245076    6.707017    9.798899    ( 0.0000,  0.0000,  0.0000)
  33 O      7.822195    4.765508    8.285777    ( 0.0000,  0.0000,  0.0000)
  34 O      2.569098    6.653213    8.372532    ( 0.0000,  0.0000,  0.0000)
  35 O      1.069833    6.589983   11.070331    ( 0.0000,  0.0000,  0.0000)
  36 O      5.943747    4.740928   10.938718    ( 0.0000,  0.0000,  0.0000)
  37 Ti     4.382889    4.784158   12.256708    ( 0.0000,  0.0000,  0.0000)
  38 Ti     9.507921    6.664309   11.807345    ( 0.0000,  0.0000,  0.0000)
  39 Ti     2.051302    6.644175   12.757728    ( 0.0000,  0.0000,  0.0000)
  40 Ti     7.273494    4.738382   12.588412    ( 0.0000,  0.0000,  0.0000)
  41 O      2.541282    4.717984   12.954095    ( 0.0000,  0.0000,  0.0000)
  42 O      7.651234    6.637578   12.613209    ( 0.0000,  0.0000,  0.0000)
  43 O      0.349457    6.685475   13.452721    ( 0.0000,  0.0000,  0.0000)
  44 O      5.674238    4.778638   13.508848    ( 0.0000,  0.0000,  0.0000)
  45 O      9.101613    4.766127   11.814361    ( 0.0000,  0.0000,  0.0000)
  46 O      3.942979    6.559361   11.785400    ( 0.0000,  0.0000,  0.0000)
  47 O      9.971570   10.521332    7.371311    ( 0.0000,  0.0000,  0.0000)
  48 O      4.822853    8.590322    7.383584    ( 0.0000,  0.0000,  0.0000)
  49 Ti     2.942253    8.594968    8.214711    ( 0.0000,  0.0000,  0.0000)
  50 Ti     8.146390   10.567872    8.225039    ( 0.0000,  0.0000,  0.0000)
  51 Ti     0.698810   10.528485    9.064092    ( 0.0000,  0.0000,  0.0000)
  52 Ti     5.907172    8.604172    8.913910    ( 0.0000,  0.0000,  0.0000)
  53 O      1.112935    8.584826    8.958651    ( 0.0000,  0.0000,  0.0000)
  54 O      6.285236   10.514871    8.934645    ( 0.0000,  0.0000,  0.0000)
  55 O      9.245250   10.483191    9.768210    ( 0.0000,  0.0000,  0.0000)
  56 O      4.073738    8.557930    9.742116    ( 0.0000,  0.0000,  0.0000)
  57 O      7.778285    8.619007    8.294600    ( 0.0000,  0.0000,  0.0000)
  58 O      2.592027   10.490499    8.360042    ( 0.0000,  0.0000,  0.0000)
  59 O      1.082663   10.560478   11.019713    ( 0.0000,  0.0000,  0.0000)
  60 O      6.221838    8.571730   11.009304    ( 0.0000,  0.0000,  0.0000)
  61 Ti     4.269599    8.604054   11.625532    ( 0.0000,  0.0000,  0.0000)
  62 Ti     9.450681   10.592278   11.709888    ( 0.0000,  0.0000,  0.0000)
  63 Ti     2.068458   10.551344   12.643462    ( 0.0000,  0.0000,  0.0000)
  64 Ti     7.220853    8.564574   12.525986    ( 0.0000,  0.0000,  0.0000)
  65 O      2.518503    8.578427   12.413819    ( 0.0000,  0.0000,  0.0000)
  66 O      7.651442   10.512197   12.471776    ( 0.0000,  0.0000,  0.0000)
  67 O      0.389417   10.525484   13.396545    ( 0.0000,  0.0000,  0.0000)
  68 O      5.310639    8.554619   13.400269    ( 0.0000,  0.0000,  0.0000)
  69 O      9.055675    8.561501   11.867494    ( 0.0000,  0.0000,  0.0000)
  70 O      4.021692   10.503325   11.791495    ( 0.0000,  0.0000,  0.0000)
  71 O      9.946164   14.323706    7.409435    ( 0.0000,  0.0000,  0.0000)
  72 O      4.782677   12.409006    7.440233    ( 0.0000,  0.0000,  0.0000)
  73 Ti     3.023609   12.421072    8.299429    ( 0.0000,  0.0000,  0.0000)
  74 Ti     8.171237   14.356381    8.301328    ( 0.0000,  0.0000,  0.0000)
  75 Ti     0.672879   14.318828    8.956928    ( 0.0000,  0.0000,  0.0000)
  76 Ti     5.863475   12.448168    9.057113    ( 0.0000,  0.0000,  0.0000)
  77 O      1.091778   12.408602    8.922494    ( 0.0000,  0.0000,  0.0000)
  78 O      6.260329   14.334276    8.923741    ( 0.0000,  0.0000,  0.0000)
  79 O      9.242016   14.375414    9.835716    ( 0.0000,  0.0000,  0.0000)
  80 O      4.053669   12.455358    9.857066    ( 0.0000,  0.0000,  0.0000)
  81 O      7.768743   12.434280    8.370210    ( 0.0000,  0.0000,  0.0000)
  82 O      2.578893   14.325138    8.352451    ( 0.0000,  0.0000,  0.0000)
  83 O      1.103907   14.328791   10.961381    ( 0.0000,  0.0000,  0.0000)
  84 O      6.262540   12.479763   11.018950    ( 0.0000,  0.0000,  0.0000)
  85 Ti     4.438333   12.413066   11.905271    ( 0.0000,  0.0000,  0.0000)
  86 Ti     9.578013   14.368233   11.906489    ( 0.0000,  0.0000,  0.0000)
  87 Ti     2.047979   14.331488   12.470744    ( 0.0000,  0.0000,  0.0000)
  88 Ti     7.209738   12.472300   12.675840    ( 0.0000,  0.0000,  0.0000)
  89 O      2.580152   12.428155   12.705624    ( 0.0000,  0.0000,  0.0000)
  90 O      7.741825   14.353053   12.714364    ( 0.0000,  0.0000,  0.0000)
  91 O      0.431150   14.318972   13.358449    ( 0.0000,  0.0000,  0.0000)
  92 O      5.542366   12.390373   13.408193    ( 0.0000,  0.0000,  0.0000)
  93 O      9.186064   12.434047   11.818184    ( 0.0000,  0.0000,  0.0000)
  94 O      4.031669   14.335121   11.940215    ( 0.0000,  0.0000,  0.0000)
  95 V      3.992609    8.548297   14.654183    ( 0.0000,  0.0000,  0.0000)
  96 O      2.998266   10.084943   14.500291    ( 0.0000,  0.0000,  0.0000)
  97 O      3.022796    7.078451   14.498609    ( 0.0000,  0.0000,  0.0000)
  98 O      4.617841    8.582107   16.121653    ( 0.0000,  0.0000,  0.0000)
  99 V      9.304029    9.260892   14.674090    ( 0.0000,  0.0000,  0.0000)
 100 O      9.686262   10.985642   14.478256    ( 0.0000,  0.0000,  0.0000)
 101 O      7.946131    8.695348   14.521816    ( 0.0000,  0.0000,  0.0000)
 102 O      9.787630    9.296189   16.130402    ( 0.0000,  0.0000,  0.0000)
 103 H      7.727638    8.753977   15.375487    ( 0.0000,  0.0000,  0.0000)
 104 H      2.969241    9.337252   15.259550    ( 0.0000,  0.0000,  0.0000)

Unit cell:
           periodic     x           y           z      points  spacing
  1. axis:    yes   10.341746    0.000000    0.000000    54     0.1915
  2. axis:    yes   -0.000000   15.289380    0.000000    80     0.1911
  3. axis:    yes    0.000000    0.000000   23.497201   125     0.1880

  Lengths:  10.341746  15.289380  23.497201
  Angles:   90.000000  90.000000  90.000000

Effective grid spacing dv^(1/3) = 0.1902

                     log10-error:    total        iterations:
           time      wfs    density  energy       fermi  poisson
iter:   1  11:14:11  -2.10   +inf  -846.535036    3             
iter:   2  11:14:42  -3.09  -2.95  -846.440264    3             
iter:   3  11:15:14  -3.71  -3.06  -846.420152    3             
iter:   4  11:15:45  -3.52  -3.16  -846.369539    3             
iter:   5  11:16:16  -3.29  -3.33  -846.346919    3             
iter:   6  11:16:48  -3.87  -3.43  -846.334034    3             
iter:   7  11:17:19  -4.74  -3.49  -846.338596    3             
iter:   8  11:17:50  -4.85  -3.62  -846.336045    3             
iter:   9  11:18:22  -4.60  -3.71  -846.334598    3             
iter:  10  11:18:53  -5.14  -3.88  -846.335376    2             
iter:  11  11:19:24  -5.71  -3.97  -846.334038    2             
iter:  12  11:19:55  -5.40  -4.03  -846.334558    3             
iter:  13  11:20:25  -6.00  -4.22  -846.334607    2             
iter:  14  11:20:57  -6.08  -4.27  -846.334772    2             
iter:  15  11:21:28  -5.95  -4.38  -846.334614    2             
iter:  16  11:21:59  -6.62  -4.52  -846.334689    2             
iter:  17  11:22:30  -7.16  -4.59  -846.334664    2             
iter:  18  11:23:02  -6.96  -4.72  -846.334737    2             
iter:  19  11:23:33  -7.11  -4.95  -846.334658    2             
iter:  20  11:24:05  -7.66  -5.03  -846.334671    2             

Converged after 20 iterations.

Dipole moment: (4.252338, -0.589865, -0.705082) |e|*Ang

Energy contributions relative to reference atoms: (reference = -935653.237240)

Kinetic:       +684.088761
Potential:     -828.162025
External:        +0.000000
XC:            -707.947380
Entropy (-ST):   -0.695866
Local:           +6.033906
--------------------------
Free energy:   -846.682604
Extrapolated:  -846.334671

Fermi level: -1.21784

Showing all kpts
 Kpt  Band  Eigenvalues  Occupancy
  0   411     -1.34848    0.78692
  0   412     -1.18853    0.42726
  0   413     -1.13437    0.30266
  0   414     -1.09385    0.22447

  1   411     -1.34892    0.78764
  1   412     -1.18774    0.42533
  1   413     -1.14457    0.32461
  1   414     -1.07793    0.19797



Forces in eV/Ang:
  0 O    -1.49516   -0.07930    1.18202
  1 O    -1.09528    0.00670    1.19985
  2 Ti    2.50941   -0.04381    1.14431
  3 Ti    2.29433    0.54300    0.65312
  4 Ti    0.00734    0.15532   -1.36975
  5 Ti   -1.65777    0.27675   -1.17426
  6 O     0.26741   -0.15407   -0.17090
  7 O     0.29993    0.02316   -0.28261
  8 O    -1.14463   -0.07019    0.01168
  9 O    -0.71921    0.01344   -0.26997
 10 O     0.18649    0.47695   -1.07870
 11 O     0.23358   -0.19522   -0.86325
 12 O    -0.16306   -0.04359   -0.04873
 13 O     0.07751    0.00844    0.11735
 14 Ti   -0.08192    0.03273    0.04802
 15 Ti    0.66733    0.17395    0.63387
 16 Ti    0.00189    0.24970    0.26061
 17 Ti   -0.31692    0.33371    0.02056
 18 O    -0.06412   -0.15340    0.01824
 19 O     0.06818   -0.10876    0.10109
 20 O    -0.37420    0.00883   -0.63876
 21 O     0.19824   -0.05034    0.07460
 22 O     0.10202    0.16675   -0.08116
 23 O     0.08550   -0.17626    0.07540
 24 O    -1.76118   -0.02638    1.98469
 25 O    -0.29273   -0.03294    0.05086
 26 Ti    0.17134    0.11259    0.56546
 27 Ti    3.51087    0.18169   -0.03694
 28 Ti   -0.13084    0.02356   -1.90321
 29 Ti   -0.54535    0.21071    0.48946
 30 O     0.15302   -0.13182   -0.10224
 31 O    -0.02017   -0.28732   -0.10204
 32 O    -1.29811    0.05355    0.75691
 33 O     0.02764   -0.28264   -0.83471
 34 O     0.26899    0.11820   -0.89914
 35 O    -0.51496   -0.00432   -0.31154
 36 O     0.71242   -0.01108    1.04961
 37 Ti   -0.05572    0.14356   -0.39985
 38 Ti    1.99427   -0.34500    0.87531
 39 Ti   -0.46725    0.01798    0.76993
 40 Ti   -1.35274   -0.00028   -1.84869
 41 O     0.06583   -0.16966   -0.12120
 42 O     0.01227   -0.00633    0.22060
 43 O    -0.86353    0.40420   -0.88873
 44 O     0.15162    0.00465    0.54480
 45 O     0.18025   -0.15831    0.28757
 46 O     0.15494   -0.01703    0.10272
 47 O    -1.58409    0.07437    1.98572
 48 O    -1.07315   -0.03259    1.18309
 49 Ti    2.57789   -0.03701    1.07443
 50 Ti    3.33144   -0.35741    0.15657
 51 Ti   -0.48852   -0.07881   -2.33699
 52 Ti   -1.33669    0.03925   -1.37232
 53 O     0.25065    0.05547    0.05512
 54 O     0.09290    0.13778   -0.00181
 55 O    -1.22689    0.04357    1.01709
 56 O    -0.94020    0.04434   -0.13543
 57 O     0.20195    0.00864   -0.93362
 58 O     0.24699    0.01430   -0.90939
 59 O    -0.38831   -0.03210    0.29584
 60 O     0.07924   -0.09429    0.18486
 61 Ti   -0.14806   -0.25564    0.07178
 62 Ti    0.95365    0.34186   -0.39733
 63 Ti    1.00884    0.00878   -1.03643
 64 Ti   -1.43323   -0.07778   -1.28592
 65 O    -0.03772    0.23543   -0.21812
 66 O    -0.23940    0.22407    0.45408
 67 O     0.71457   -1.78223   -2.29514
 68 O     0.48364    0.10396   -0.35948
 69 O     0.40199    0.44862    0.53869
 70 O    -0.12033    0.08861    0.31161
 71 O    -1.24597    0.04518    1.27792
 72 O    -1.25413    0.07410    1.57592
 73 Ti    2.65039   -0.09674    0.87521
 74 Ti    2.94308   -0.90498    0.81530
 75 Ti   -0.82632   -0.15580   -1.48649
 76 Ti   -1.15962   -0.48402   -1.70781
 77 O     0.16093    0.19880   -0.13615
 78 O     0.21568    0.03006   -0.22456
 79 O    -0.82738   -0.00864   -0.01442
 80 O    -0.60835   -0.03936   -0.09678
 81 O     0.05126    0.19128   -0.75501
 82 O     0.22353    0.27606   -0.96561
 83 O    -0.01542    0.10751    0.00680
 84 O     0.47773    0.11170    1.22945
 85 Ti   -0.22051    0.09289   -0.23575
 86 Ti    0.78881   -0.35997    0.21223
 87 Ti   -0.03115   -0.05686    0.13514
 88 Ti   -0.87496   -0.47812   -2.03132
 89 O    -0.10214   -0.05716    0.07283
 90 O    -0.17867   -0.35290    0.42222
 91 O    -0.19669    0.07985   -0.38852
 92 O     0.69859   -0.01492    0.24810
 93 O    -0.18747    0.01532    0.48184
 94 O    -0.02867    0.22214    0.04002
 95 V     4.73398   -5.78068   -3.55039
 96 O     0.06491   -0.82667    1.63802
 97 O     0.41655    1.04036   -0.06205
 98 O     0.04679    0.15675    0.49613
 99 V    19.53605    8.71510   -1.21832
100 O    -3.10836    1.47196    1.36747
101 O   -14.97283   -6.87753   -6.91359
102 O     0.65398   -1.61012    3.87356
103 H    -3.53322   -0.35982    6.73628
104 H    -5.33651    5.42318    2.06423

System changes: positions 

Initializing position-dependent things.

Density initialized from wave functions
          .------------------------.  
         /|                        |  
        / |                        |  
       /  |                        |  
      /   |                        |  
     /    |                        |  
    /     |                        |  
   /      |                        |  
  /       |                        |  
 *        |                        |  
 |        |                        |  
 |        |                        |  
 |        |                        |  
 |        O      O            O    |  
 |        |   Hi      O  H  OV O   |  
 |      O |    OV  O     OTi     Ti|  
 |        | Oi     Oi     O    O   |  
 |    O   |      O     O      TiO  |  
 |        TiO          Ti   O      |  
 |        OTi   TiO  O OiO   Ti    |  
 |  O  O  |O  TiTi   Ti    OTiO  O |  
 |      Tii    OO    OO   O        |  
 |      OO| OO    OTii    Tii      |  
 |   O Ti | Tii     O   OO     O   |  
 |    O   |O     OOTi    Oi        |  
 |  Ti    TO   O  O    O     O     |  
 |  O    O|     Ti    Ti           |  
 |       Ti         O      O       |  
 |        |  O                     |  
 |        .------------------------.  
 |       /                        /   
 |      /                        /    
 |     /                        /     
 |    /                        /      
 |   /                        /       
 |  /                        /        
 | /                        /         
 |/                        /          
 *------------------------*           

Positions:
   0 O      9.981627    2.835891    7.394815    ( 0.0000,  0.0000,  0.0000)
   1 O      4.772672    0.956313    7.415080    ( 0.0000,  0.0000,  0.0000)
   2 Ti     2.989016    0.956704    8.311490    ( 0.0000,  0.0000,  0.0000)
   3 Ti     8.209262    2.779445    8.273415    ( 0.0000,  0.0000,  0.0000)
   4 Ti     0.642387    2.838450    8.979866    ( 0.0000,  0.0000,  0.0000)
   5 Ti     5.864992    0.921288    8.943022    ( 0.0000,  0.0000,  0.0000)
   6 O      1.090173    0.959092    8.924269    ( 0.0000,  0.0000,  0.0000)
   7 O      6.330723    2.837142    8.932811    ( 0.0000,  0.0000,  0.0000)
   8 O      9.247781    2.808803    9.824244    ( 0.0000,  0.0000,  0.0000)
   9 O      4.068825    0.950342    9.839484    ( 0.0000,  0.0000,  0.0000)
  10 O      7.769774    0.913966    8.324746    ( 0.0000,  0.0000,  0.0000)
  11 O      2.569841    2.891634    8.367207    ( 0.0000,  0.0000,  0.0000)
  12 O      1.090268    2.890173   10.984247    ( 0.0000,  0.0000,  0.0000)
  13 O      6.281408    0.919612   10.944374    ( 0.0000,  0.0000,  0.0000)
  14 Ti     4.389598    0.973515   11.900165    ( 0.0000,  0.0000,  0.0000)
  15 Ti     9.573318    2.829221   11.893444    ( 0.0000,  0.0000,  0.0000)
  16 Ti     2.016386    2.847821   12.510411    ( 0.0000,  0.0000,  0.0000)
  17 Ti     7.188243    0.933044   12.468607    ( 0.0000,  0.0000,  0.0000)
  18 O      2.573049    0.970650   12.703701    ( 0.0000,  0.0000,  0.0000)
  19 O      7.702442    2.861744   12.653301    ( 0.0000,  0.0000,  0.0000)
  20 O      0.381573    2.835571   13.376802    ( 0.0000,  0.0000,  0.0000)
  21 O      5.560384    1.026619   13.330062    ( 0.0000,  0.0000,  0.0000)
  22 O      9.171641    0.950649   11.939541    ( 0.0000,  0.0000,  0.0000)
  23 O      3.958085    2.929217   11.841009    ( 0.0000,  0.0000,  0.0000)
  24 O      9.991171    6.703194    7.375660    ( 0.0000,  0.0000,  0.0000)
  25 O      4.597236    4.776691    7.985632    ( 0.0000,  0.0000,  0.0000)
  26 Ti     2.765029    4.778732    7.970356    ( 0.0000,  0.0000,  0.0000)
  27 Ti     8.201050    6.730463    8.240706    ( 0.0000,  0.0000,  0.0000)
  28 Ti     0.685359    6.687142    9.131194    ( 0.0000,  0.0000,  0.0000)
  29 Ti     6.085628    4.757586    9.047069    ( 0.0000,  0.0000,  0.0000)
  30 O      1.053778    4.770971    8.927304    ( 0.0000,  0.0000,  0.0000)
  31 O      6.349787    6.695178    8.941573    ( 0.0000,  0.0000,  0.0000)
  32 O      9.245076    6.707017    9.798899    ( 0.0000,  0.0000,  0.0000)
  33 O      7.822195    4.765508    8.285777    ( 0.0000,  0.0000,  0.0000)
  34 O      2.569098    6.653213    8.372532    ( 0.0000,  0.0000,  0.0000)
  35 O      1.067879    6.589804   11.069136    ( 0.0000,  0.0000,  0.0000)
  36 O      5.946459    4.740882   10.942939    ( 0.0000,  0.0000,  0.0000)
  37 Ti     4.382961    4.784713   12.255117    ( 0.0000,  0.0000,  0.0000)
  38 Ti     9.515433    6.663118   11.810568    ( 0.0000,  0.0000,  0.0000)
  39 Ti     2.049253    6.644207   12.760340    ( 0.0000,  0.0000,  0.0000)
  40 Ti     7.268361    4.738721   12.581732    ( 0.0000,  0.0000,  0.0000)
  41 O      2.541509    4.717449   12.953535    ( 0.0000,  0.0000,  0.0000)
  42 O      7.651235    6.637303   12.613415    ( 0.0000,  0.0000,  0.0000)
  43 O      0.346053    6.687217   13.449116    ( 0.0000,  0.0000,  0.0000)
  44 O      5.674654    4.778687   13.511119    ( 0.0000,  0.0000,  0.0000)
  45 O      9.102361    4.765490   11.815440    ( 0.0000,  0.0000,  0.0000)
  46 O      3.943618    6.559429   11.785877    ( 0.0000,  0.0000,  0.0000)
  47 O      9.971570   10.521332    7.371311    ( 0.0000,  0.0000,  0.0000)
  48 O      4.822853    8.590322    7.383584    ( 0.0000,  0.0000,  0.0000)
  49 Ti     2.942253    8.594968    8.214711    ( 0.0000,  0.0000,  0.0000)
  50 Ti     8.146390   10.567872    8.225039    ( 0.0000,  0.0000,  0.0000)
  51 Ti     0.698810   10.528485    9.064092    ( 0.0000,  0.0000,  0.0000)
  52 Ti     5.907172    8.604172    8.913910    ( 0.0000,  0.0000,  0.0000)
  53 O      1.112935    8.584826    8.958651    ( 0.0000,  0.0000,  0.0000)
  54 O      6.285236   10.514871    8.934645    ( 0.0000,  0.0000,  0.0000)
  55 O      9.245250   10.483191    9.768210    ( 0.0000,  0.0000,  0.0000)
  56 O      4.073738    8.557930    9.742116    ( 0.0000,  0.0000,  0.0000)
  57 O      7.778285    8.619007    8.294600    ( 0.0000,  0.0000,  0.0000)
  58 O      2.592027   10.490499    8.360042    ( 0.0000,  0.0000,  0.0000)
  59 O      1.081032   10.560412   11.020724    ( 0.0000,  0.0000,  0.0000)
  60 O      6.221800    8.571652   11.009629    ( 0.0000,  0.0000,  0.0000)
  61 Ti     4.268750    8.603153   11.625587    ( 0.0000,  0.0000,  0.0000)
  62 Ti     9.454596   10.593319   11.708706    ( 0.0000,  0.0000,  0.0000)
  63 Ti     2.072522   10.551542   12.639798    ( 0.0000,  0.0000,  0.0000)
  64 Ti     7.216322    8.564691   12.522374    ( 0.0000,  0.0000,  0.0000)
  65 O      2.518316    8.579081   12.412959    ( 0.0000,  0.0000,  0.0000)
  66 O      7.650680   10.513570   12.473738    ( 0.0000,  0.0000,  0.0000)
  67 O      0.394596   10.516789   13.385040    ( 0.0000,  0.0000,  0.0000)
  68 O      5.312387    8.554960   13.398341    ( 0.0000,  0.0000,  0.0000)
  69 O      9.057254    8.563331   11.869309    ( 0.0000,  0.0000,  0.0000)
  70 O      4.021232   10.503625   11.792604    ( 0.0000,  0.0000,  0.0000)
  71 O      9.946164   14.323706    7.409435    ( 0.0000,  0.0000,  0.0000)
  72 O      4.782677   12.409006    7.440233    ( 0.0000,  0.0000,  0.0000)
  73 Ti     3.023609   12.421072    8.299429    ( 0.0000,  0.0000,  0.0000)
  74 Ti     8.171237   14.356381    8.301328    ( 0.0000,  0.0000,  0.0000)
  75 Ti     0.672879   14.318828    8.956928    ( 0.0000,  0.0000,  0.0000)
  76 Ti     5.863475   12.448168    9.057113    ( 0.0000,  0.0000,  0.0000)
  77 O      1.091778   12.408602    8.922494    ( 0.0000,  0.0000,  0.0000)
  78 O      6.260329   14.334276    8.923741    ( 0.0000,  0.0000,  0.0000)
  79 O      9.242016   14.375414    9.835716    ( 0.0000,  0.0000,  0.0000)
  80 O      4.053669   12.455358    9.857066    ( 0.0000,  0.0000,  0.0000)
  81 O      7.768743   12.434280    8.370210    ( 0.0000,  0.0000,  0.0000)
  82 O      2.578893   14.325138    8.352451    ( 0.0000,  0.0000,  0.0000)
  83 O      1.103861   14.329292   10.961438    ( 0.0000,  0.0000,  0.0000)
  84 O      6.264473   12.480243   11.023558    ( 0.0000,  0.0000,  0.0000)
  85 Ti     4.437248   12.413487   11.904433    ( 0.0000,  0.0000,  0.0000)
  86 Ti     9.581047   14.366875   11.907426    ( 0.0000,  0.0000,  0.0000)
  87 Ti     2.047922   14.331312   12.471295    ( 0.0000,  0.0000,  0.0000)
  88 Ti     7.205970   12.470197   12.666999    ( 0.0000,  0.0000,  0.0000)
  89 O      2.579717   12.428115   12.705851    ( 0.0000,  0.0000,  0.0000)
  90 O      7.741048   14.351653   12.716057    ( 0.0000,  0.0000,  0.0000)
  91 O      0.430341   14.319356   13.357042    ( 0.0000,  0.0000,  0.0000)
  92 O      5.545087   12.390346   13.408969    ( 0.0000,  0.0000,  0.0000)
  93 O      9.185291   12.434125   11.820460    ( 0.0000,  0.0000,  0.0000)
  94 O      4.031505   14.336068   11.940303    ( 0.0000,  0.0000,  0.0000)
  95 V      4.009949    8.528349   14.642117    ( 0.0000,  0.0000,  0.0000)
  96 O      2.999021   10.080433   14.507590    ( 0.0000,  0.0000,  0.0000)
  97 O      3.024323    7.082309   14.498460    ( 0.0000,  0.0000,  0.0000)
  98 O      4.617585    8.582801   16.122644    ( 0.0000,  0.0000,  0.0000)
  99 V      9.329469    9.267955   14.662775    ( 0.0000,  0.0000,  0.0000)
 100 O      9.684850   10.983141   14.487051    ( 0.0000,  0.0000,  0.0000)
 101 O      7.932451    8.687400   14.506904    ( 0.0000,  0.0000,  0.0000)
 102 O      9.792366    9.283885   16.148043    ( 0.0000,  0.0000,  0.0000)
 103 H      7.718727    8.753438   15.393439    ( 0.0000,  0.0000,  0.0000)
 104 H      2.948884    9.351671   15.266531    ( 0.0000,  0.0000,  0.0000)

Unit cell:
           periodic     x           y           z      points  spacing
  1. axis:    yes   10.341746    0.000000    0.000000    54     0.1915
  2. axis:    yes   -0.000000   15.289380    0.000000    80     0.1911
  3. axis:    yes    0.000000    0.000000   23.497201   125     0.1880

  Lengths:  10.341746  15.289380  23.497201
  Angles:   90.000000  90.000000  90.000000

Effective grid spacing dv^(1/3) = 0.1902

                     log10-error:    total        iterations:
           time      wfs    density  energy       fermi  poisson
iter:   1  11:26:38  -2.08   +inf  -848.301794    4             
iter:   2  11:27:10  -2.98  -2.81  -848.162034    4             
iter:   3  11:27:41  -3.52  -2.87  -848.089285    3             
iter:   4  11:28:12  -3.51  -3.00  -848.016982    3             
iter:   5  11:28:43  -3.87  -3.08  -848.038787    3             
iter:   6  11:29:14  -3.57  -3.15  -848.006274    3             
iter:   7  11:29:46  -4.01  -3.29  -847.991686    3             
iter:   8  11:30:17  -4.39  -3.39  -847.994623    2             
iter:   9  11:30:48  -4.80  -3.50  -847.994924    2             
iter:  10  11:31:20  -4.86  -3.57  -847.990506    3             
iter:  11  11:31:51  -5.32  -3.68  -847.990988    2             
iter:  12  11:32:22  -5.35  -3.84  -847.991998    3             
iter:  13  11:32:54  -6.01  -3.99  -847.992250    2             
iter:  14  11:33:26  -5.58  -4.05  -847.991995    2             
iter:  15  11:33:57  -6.27  -4.18  -847.992219    2             
iter:  16  11:34:28  -6.39  -4.31  -847.992099    2             
iter:  17  11:35:00  -6.33  -4.41  -847.991872    2             
iter:  18  11:35:31  -6.56  -4.52  -847.992388    2             
iter:  19  11:36:03  -7.35  -4.74  -847.992145    2             
iter:  20  11:36:34  -7.72  -4.83  -847.992266    2             

Converged after 20 iterations.

Dipole moment: (4.681141, -0.619897, -0.767927) |e|*Ang

Energy contributions relative to reference atoms: (reference = -935653.237240)

Kinetic:       +674.416912
Potential:     -821.636181
External:        +0.000000
XC:            -706.525499
Entropy (-ST):   -0.671995
Local:           +6.088500
--------------------------
Free energy:   -848.328264
Extrapolated:  -847.992266

Fermi level: -1.23009

Showing all kpts
 Kpt  Band  Eigenvalues  Occupancy
  0   411     -1.38191    0.82027
  0   412     -1.19784    0.42007
  0   413     -1.14667    0.30276
  0   414     -1.10453    0.22174

  1   411     -1.38232    0.82088
  1   412     -1.19590    0.41535
  1   413     -1.15766    0.32645
  1   414     -1.08968    0.19716



Forces in eV/Ang:
  0 O    -1.49638   -0.07895    1.18084
  1 O    -1.08896    0.00613    1.20265
  2 Ti    2.50112   -0.04070    1.14116
  3 Ti    2.31814    0.53791    0.66319
  4 Ti   -0.00772    0.15293   -1.37385
  5 Ti   -1.66051    0.27765   -1.17190
  6 O     0.26958   -0.15626   -0.17099
  7 O     0.28874    0.04226   -0.27252
  8 O    -1.14602   -0.06705   -0.00483
  9 O    -0.71418    0.01393   -0.26423
 10 O     0.18125    0.47482   -1.07939
 11 O     0.23679   -0.19564   -0.86227
 12 O    -0.12795   -0.03788   -0.01357
 13 O     0.05564    0.01230    0.08981
 14 Ti   -0.06819    0.02208    0.05032
 15 Ti    0.57775    0.14934    0.57693
 16 Ti    0.01529    0.20335    0.21243
 17 Ti   -0.24553    0.28202    0.03631
 18 O    -0.07181   -0.12675    0.02335
 19 O     0.06038   -0.07893    0.09469
 20 O    -0.33218    0.01334   -0.56037
 21 O     0.16404   -0.04449    0.07247
 22 O     0.10190    0.14150   -0.07879
 23 O     0.07629   -0.14920    0.07411
 24 O    -1.75960   -0.02620    1.98421
 25 O    -0.26149   -0.03231    0.06135
 26 Ti    0.15637    0.11060    0.56357
 27 Ti    3.53987    0.18263   -0.02204
 28 Ti   -0.16327    0.02400   -1.95083
 29 Ti   -0.53862    0.20528    0.46781
 30 O     0.15332   -0.12765   -0.09932
 31 O    -0.03336   -0.29678   -0.08930
 32 O    -1.29332    0.05173    0.74681
 33 O     0.00754   -0.28109   -0.83135
 34 O     0.27218    0.11913   -0.89611
 35 O    -0.44137   -0.01068   -0.22567
 36 O     0.70078   -0.01142    1.00263
 37 Ti   -0.01234    0.10609   -0.33508
 38 Ti    1.80792   -0.29949    0.83856
 39 Ti   -0.44697    0.01696    0.65566
 40 Ti   -1.28054    0.02358   -1.82138
 41 O     0.04420   -0.12108   -0.10509
 42 O     0.01579   -0.03092    0.16643
 43 O    -0.79794    0.39491   -0.82909
 44 O     0.09383    0.00865    0.48370
 45 O     0.18355   -0.13545    0.28662
 46 O     0.13943   -0.00570    0.10920
 47 O    -1.58928    0.07534    1.98346
 48 O    -1.06170   -0.03191    1.19241
 49 Ti    2.55910   -0.03889    1.06017
 50 Ti    3.34992   -0.36115    0.15553
 51 Ti   -0.48725   -0.08007   -2.31672
 52 Ti   -1.33978    0.03981   -1.39859
 53 O     0.25367    0.05424    0.05760
 54 O     0.08382    0.14574    0.01038
 55 O    -1.22761    0.04727    0.98448
 56 O    -0.93255    0.04361   -0.10200
 57 O     0.19234    0.01219   -0.92985
 58 O     0.25159    0.01968   -0.90849
 59 O    -0.36853   -0.01075    0.14681
 60 O     0.01100   -0.09277    0.10859
 61 Ti   -0.21486   -0.21351   -0.04897
 62 Ti    0.94674    0.29888   -0.28018
 63 Ti    0.86784    0.03235   -0.86760
 64 Ti   -1.10790   -0.04560   -1.11058
 65 O    -0.00830    0.12693   -0.20833
 66 O    -0.21809    0.20902    0.37534
 67 O     1.00483   -1.93907   -2.56121
 68 O     0.56947    0.02314   -0.43759
 69 O     0.36677    0.39483    0.52213
 70 O    -0.05102    0.05489    0.27281
 71 O    -1.24677    0.04475    1.27742
 72 O    -1.23344    0.07393    1.59027
 73 Ti    2.62266   -0.09675    0.86353
 74 Ti    2.96046   -0.89734    0.82048
 75 Ti   -0.83590   -0.15182   -1.48996
 76 Ti   -1.16749   -0.47898   -1.73746
 77 O     0.16558    0.20015   -0.13705
 78 O     0.20801    0.01182   -0.21505
 79 O    -0.82600   -0.01392   -0.02623
 80 O    -0.57759   -0.03957   -0.07398
 81 O     0.04111    0.18816   -0.74880
 82 O     0.22779    0.27054   -0.96443
 83 O    -0.00364    0.10171    0.01243
 84 O     0.42746    0.11306    1.06033
 85 Ti   -0.22636    0.10148   -0.14799
 86 Ti    0.67851   -0.32290    0.21298
 87 Ti   -0.00863   -0.06760    0.12737
 88 Ti   -0.78106   -0.45617   -1.88141
 89 O    -0.06946   -0.00320    0.05262
 90 O    -0.15440   -0.31663    0.39002
 91 O    -0.17416    0.07586   -0.34808
 92 O     0.61028   -0.01659    0.20503
 93 O    -0.16236    0.02051    0.44643
 94 O    -0.02638    0.20429    0.03556
 95 V     3.64338   -4.43605   -2.53691
 96 O     0.23379   -1.08065    1.50060
 97 O     0.36460    0.81271   -0.08611
 98 O    -0.01484    0.06290    0.19054
 99 V    16.05314    7.39257   -0.14898
100 O    -3.42019    1.40809    1.65285
101 O   -12.13841   -5.34166   -4.23960
102 O     0.36386   -1.63498    2.57512
103 H    -2.62334   -0.38972    4.26193
104 H    -4.49861    4.73741    1.64829

System changes: positions 

Initializing position-dependent things.

Density initialized from wave functions
          .------------------------.  
         /|                        |  
        / |                        |  
       /  |                        |  
      /   |                        |  
     /    |                        |  
    /     |                        |  
   /      |                        |  
  /       |                        |  
 *        |                        |  
 |        |                        |  
 |        |                        |  
 |        |                        |  
 |        O      O            O    |  
 |        |   Hi      O  H  OV O   |  
 |      O |    OV  O     OTi     Ti|  
 |        | Oi     Oi     O    O   |  
 |    O   |      O     O      TiO  |  
 |        TiO          Ti   O      |  
 |        OTi   TiO  O OiO  Tii    |  
 |  O  O  |O  TiTi   Ti    O  O  O |  
 |      Tii    OO    OO   O        |  
 |      OO| OO    OTii    Tii      |  
 |   O Ti | Tii     O   OO     O   |  
 |    O   |O     OOTi    Oi        |  
 |  Ti    TO   O  O    O     O     |  
 |  O    O|     Ti    Ti           |  
 |       Ti         O      O       |  
 |        |  O                     |  
 |        .------------------------.  
 |       /                        /   
 |      /                        /    
 |     /                        /     
 |    /                        /      
 |   /                        /       
 |  /                        /        
 | /                        /         
 |/                        /          
 *------------------------*           

Positions:
   0 O      9.981627    2.835891    7.394815    ( 0.0000,  0.0000,  0.0000)
   1 O      4.772672    0.956313    7.415080    ( 0.0000,  0.0000,  0.0000)
   2 Ti     2.989016    0.956704    8.311490    ( 0.0000,  0.0000,  0.0000)
   3 Ti     8.209262    2.779445    8.273415    ( 0.0000,  0.0000,  0.0000)
   4 Ti     0.642387    2.838450    8.979866    ( 0.0000,  0.0000,  0.0000)
   5 Ti     5.864992    0.921288    8.943022    ( 0.0000,  0.0000,  0.0000)
   6 O      1.090173    0.959092    8.924269    ( 0.0000,  0.0000,  0.0000)
   7 O      6.330723    2.837142    8.932811    ( 0.0000,  0.0000,  0.0000)
   8 O      9.247781    2.808803    9.824244    ( 0.0000,  0.0000,  0.0000)
   9 O      4.068825    0.950342    9.839484    ( 0.0000,  0.0000,  0.0000)
  10 O      7.769774    0.913966    8.324746    ( 0.0000,  0.0000,  0.0000)
  11 O      2.569841    2.891634    8.367207    ( 0.0000,  0.0000,  0.0000)
  12 O      1.089651    2.890038   10.984414    ( 0.0000,  0.0000,  0.0000)
  13 O      6.281643    0.919782   10.944748    ( 0.0000,  0.0000,  0.0000)
  14 Ti     4.389256    0.973655   11.900549    ( 0.0000,  0.0000,  0.0000)
  15 Ti     9.576550    2.830066   11.896818    ( 0.0000,  0.0000,  0.0000)
  16 Ti     2.016568    2.848947   12.511481    ( 0.0000,  0.0000,  0.0000)
  17 Ti     7.187144    0.934639   12.468983    ( 0.0000,  0.0000,  0.0000)
  18 O      2.572417    0.970006   12.703899    ( 0.0000,  0.0000,  0.0000)
  19 O      7.702895    2.861390   12.654135    ( 0.0000,  0.0000,  0.0000)
  20 O      0.379596    2.835779   13.373666    ( 0.0000,  0.0000,  0.0000)
  21 O      5.561294    1.026440   13.330643    ( 0.0000,  0.0000,  0.0000)
  22 O      9.172338    0.951407   11.938898    ( 0.0000,  0.0000,  0.0000)
  23 O      3.958543    2.928361   11.841690    ( 0.0000,  0.0000,  0.0000)
  24 O      9.991171    6.703194    7.375660    ( 0.0000,  0.0000,  0.0000)
  25 O      4.597236    4.776691    7.985632    ( 0.0000,  0.0000,  0.0000)
  26 Ti     2.765029    4.778732    7.970356    ( 0.0000,  0.0000,  0.0000)
  27 Ti     8.201050    6.730463    8.240706    ( 0.0000,  0.0000,  0.0000)
  28 Ti     0.685359    6.687142    9.131194    ( 0.0000,  0.0000,  0.0000)
  29 Ti     6.085628    4.757586    9.047069    ( 0.0000,  0.0000,  0.0000)
  30 O      1.053778    4.770971    8.927304    ( 0.0000,  0.0000,  0.0000)
  31 O      6.349787    6.695178    8.941573    ( 0.0000,  0.0000,  0.0000)
  32 O      9.245076    6.707017    9.798899    ( 0.0000,  0.0000,  0.0000)
  33 O      7.822195    4.765508    8.285777    ( 0.0000,  0.0000,  0.0000)
  34 O      2.569098    6.653213    8.372532    ( 0.0000,  0.0000,  0.0000)
  35 O      1.065448    6.589461   11.068102    ( 0.0000,  0.0000,  0.0000)
  36 O      5.950752    4.740810   10.949307    ( 0.0000,  0.0000,  0.0000)
  37 Ti     4.383494    4.785219   12.253215    ( 0.0000,  0.0000,  0.0000)
  38 Ti     9.525746    6.661589   11.815374    ( 0.0000,  0.0000,  0.0000)
  39 Ti     2.046254    6.644284   12.763478    ( 0.0000,  0.0000,  0.0000)
  40 Ti     7.260758    4.739420   12.571091    ( 0.0000,  0.0000,  0.0000)
  41 O      2.541657    4.717084   12.952792    ( 0.0000,  0.0000,  0.0000)
  42 O      7.651288    6.636707   12.613353    ( 0.0000,  0.0000,  0.0000)
  43 O      0.341101    6.689964   13.443933    ( 0.0000,  0.0000,  0.0000)
  44 O      5.674744    4.778812   13.514159    ( 0.0000,  0.0000,  0.0000)
  45 O      9.103605    4.764720   11.817206    ( 0.0000,  0.0000,  0.0000)
  46 O      3.944490    6.559637   11.786726    ( 0.0000,  0.0000,  0.0000)
  47 O      9.971570   10.521332    7.371311    ( 0.0000,  0.0000,  0.0000)
  48 O      4.822853    8.590322    7.383584    ( 0.0000,  0.0000,  0.0000)
  49 Ti     2.942253    8.594968    8.214711    ( 0.0000,  0.0000,  0.0000)
  50 Ti     8.146390   10.567872    8.225039    ( 0.0000,  0.0000,  0.0000)
  51 Ti     0.698810   10.528485    9.064092    ( 0.0000,  0.0000,  0.0000)
  52 Ti     5.907172    8.604172    8.913910    ( 0.0000,  0.0000,  0.0000)
  53 O      1.112935    8.584826    8.958651    ( 0.0000,  0.0000,  0.0000)
  54 O      6.285236   10.514871    8.934645    ( 0.0000,  0.0000,  0.0000)
  55 O      9.245250   10.483191    9.768210    ( 0.0000,  0.0000,  0.0000)
  56 O      4.073738    8.557930    9.742116    ( 0.0000,  0.0000,  0.0000)
  57 O      7.778285    8.619007    8.294600    ( 0.0000,  0.0000,  0.0000)
  58 O      2.592027   10.490499    8.360042    ( 0.0000,  0.0000,  0.0000)
  59 O      1.078583   10.560506   11.020769    ( 0.0000,  0.0000,  0.0000)
  60 O      6.221107    8.571521   11.009427    ( 0.0000,  0.0000,  0.0000)
  61 Ti     4.266679    8.602119   11.624423    ( 0.0000,  0.0000,  0.0000)
  62 Ti     9.461002   10.594645   11.708070    ( 0.0000,  0.0000,  0.0000)
  63 Ti     2.077676   10.552041   12.635722    ( 0.0000,  0.0000,  0.0000)
  64 Ti     7.212013    8.565160   12.517814    ( 0.0000,  0.0000,  0.0000)
  65 O      2.518343    8.579006   12.411633    ( 0.0000,  0.0000,  0.0000)
  66 O      7.649614   10.515557   12.476298    ( 0.0000,  0.0000,  0.0000)
  67 O      0.405455   10.501510   13.363995    ( 0.0000,  0.0000,  0.0000)
  68 O      5.316406    8.554686   13.394324    ( 0.0000,  0.0000,  0.0000)
  69 O      9.059438    8.565738   11.872214    ( 0.0000,  0.0000,  0.0000)
  70 O      4.021228   10.503776   11.794006    ( 0.0000,  0.0000,  0.0000)
  71 O      9.946164   14.323706    7.409435    ( 0.0000,  0.0000,  0.0000)
  72 O      4.782677   12.409006    7.440233    ( 0.0000,  0.0000,  0.0000)
  73 Ti     3.023609   12.421072    8.299429    ( 0.0000,  0.0000,  0.0000)
  74 Ti     8.171237   14.356381    8.301328    ( 0.0000,  0.0000,  0.0000)
  75 Ti     0.672879   14.318828    8.956928    ( 0.0000,  0.0000,  0.0000)
  76 Ti     5.863475   12.448168    9.057113    ( 0.0000,  0.0000,  0.0000)
  77 O      1.091778   12.408602    8.922494    ( 0.0000,  0.0000,  0.0000)
  78 O      6.260329   14.334276    8.923741    ( 0.0000,  0.0000,  0.0000)
  79 O      9.242016   14.375414    9.835716    ( 0.0000,  0.0000,  0.0000)
  80 O      4.053669   12.455358    9.857066    ( 0.0000,  0.0000,  0.0000)
  81 O      7.768743   12.434280    8.370210    ( 0.0000,  0.0000,  0.0000)
  82 O      2.578893   14.325138    8.352451    ( 0.0000,  0.0000,  0.0000)
  83 O      1.103902   14.330038   10.961596    ( 0.0000,  0.0000,  0.0000)
  84 O      6.267062   12.481027   11.029255    ( 0.0000,  0.0000,  0.0000)
  85 Ti     4.435419   12.414250   11.904006    ( 0.0000,  0.0000,  0.0000)
  86 Ti     9.584804   14.365034   11.908958    ( 0.0000,  0.0000,  0.0000)
  87 Ti     2.048057   14.330900   12.472116    ( 0.0000,  0.0000,  0.0000)
  88 Ti     7.200892   12.467119   12.654244    ( 0.0000,  0.0000,  0.0000)
  89 O      2.579373   12.428626   12.706011    ( 0.0000,  0.0000,  0.0000)
  90 O      7.740054   14.349778   12.718458    ( 0.0000,  0.0000,  0.0000)
  91 O      0.429267   14.319935   13.355161    ( 0.0000,  0.0000,  0.0000)
  92 O      5.548568   12.390267   13.409792    ( 0.0000,  0.0000,  0.0000)
  93 O      9.184294   12.434324   11.823739    ( 0.0000,  0.0000,  0.0000)
  94 O      4.031270   14.337412   11.940409    ( 0.0000,  0.0000,  0.0000)
  95 V      4.026889    8.509938   14.632979    ( 0.0000,  0.0000,  0.0000)
  96 O      3.001984   10.070653   14.517679    ( 0.0000,  0.0000,  0.0000)
  97 O      3.026244    7.086183   14.497907    ( 0.0000,  0.0000,  0.0000)
  98 O      4.616672    8.582923   16.121215    ( 0.0000,  0.0000,  0.0000)
  99 V      9.353270    9.272969   14.659051    ( 0.0000,  0.0000,  0.0000)
 100 O      9.678904   10.978541   14.503453    ( 0.0000,  0.0000,  0.0000)
 101 O      7.923338    8.684116   14.507900    ( 0.0000,  0.0000,  0.0000)
 102 O      9.795913    9.263805   16.161257    ( 0.0000,  0.0000,  0.0000)
 103 H      7.712573    8.752010   15.398316    ( 0.0000,  0.0000,  0.0000)
 104 H      2.924122    9.368227   15.273868    ( 0.0000,  0.0000,  0.0000)

Unit cell:
           periodic     x           y           z      points  spacing
  1. axis:    yes   10.341746    0.000000    0.000000    54     0.1915
  2. axis:    yes   -0.000000   15.289380    0.000000    80     0.1911
  3. axis:    yes    0.000000    0.000000   23.497201   125     0.1880

  Lengths:  10.341746  15.289380  23.497201
  Angles:   90.000000  90.000000  90.000000

Effective grid spacing dv^(1/3) = 0.1902

                     log10-error:    total        iterations:
           time      wfs    density  energy       fermi  poisson
iter:   1  11:40:06  -2.20   +inf  -849.395193    3             
iter:   2  11:40:37  -3.02  -2.90  -849.350919    3             
iter:   3  11:41:08  -3.47  -2.97  -849.306640    3             
iter:   4  11:41:40  -3.76  -3.04  -849.288334    3             
iter:   5  11:42:11  -3.85  -3.14  -849.297917    3             
iter:   6  11:42:42  -3.63  -3.26  -849.269944    2             
iter:   7  11:43:13  -4.28  -3.30  -849.285333    3             
iter:   8  11:43:44  -4.61  -3.43  -849.279335    2             
iter:   9  11:44:15  -5.07  -3.56  -849.278263    2             
iter:  10  11:44:47  -5.19  -3.74  -849.277043    3             
iter:  11  11:45:17  -5.88  -3.89  -849.277506    2             
iter:  12  11:45:49  -5.78  -4.00  -849.277780    2             
iter:  13  11:46:20  -6.10  -4.12  -849.277869    2             
iter:  14  11:46:52  -6.18  -4.21  -849.277494    2             
iter:  15  11:47:23  -6.21  -4.32  -849.277741    2             
iter:  16  11:47:54  -7.01  -4.50  -849.277691    2             
iter:  17  11:48:25  -7.07  -4.56  -849.277583    2             
iter:  18  11:48:57  -7.24  -4.66  -849.277717    2             
iter:  19  11:49:28  -7.60  -4.87  -849.277661    2             

Converged after 19 iterations.

Dipole moment: (5.209370, -0.674584, -0.843872) |e|*Ang

Energy contributions relative to reference atoms: (reference = -935653.237240)

Kinetic:       +669.971937
Potential:     -819.033625
External:        +0.000000
XC:            -706.031528
Entropy (-ST):   -0.637203
Local:           +6.134156
--------------------------
Free energy:   -849.596263
Extrapolated:  -849.277661

Fermi level: -1.24869

Showing all kpts
 Kpt  Band  Eigenvalues  Occupancy
  0   411     -1.43585    0.86664
  0   412     -1.21063    0.40597
  0   413     -1.16450    0.30112
  0   414     -1.11984    0.21611

  1   411     -1.43621    0.86706
  1   412     -1.20650    0.39606
  1   413     -1.17728    0.32869
  1   414     -1.10628    0.19402



Forces in eV/Ang:
  0 O    -1.49892   -0.07850    1.17934
  1 O    -1.08146    0.00590    1.20552
  2 Ti    2.49105   -0.03917    1.13926
  3 Ti    2.35096    0.52974    0.67710
  4 Ti   -0.02647    0.14882   -1.37530
  5 Ti   -1.66412    0.27540   -1.16609
  6 O     0.27308   -0.15629   -0.17176
  7 O     0.27399    0.07097   -0.25823
  8 O    -1.14802   -0.06249   -0.02816
  9 O    -0.70917    0.01517   -0.25988
 10 O     0.17470    0.47324   -1.08123
 11 O     0.24121   -0.19553   -0.86109
 12 O    -0.08956   -0.03107    0.01693
 13 O     0.03272    0.01757    0.06370
 14 Ti   -0.04945    0.00969    0.05781
 15 Ti    0.46293    0.12085    0.50808
 16 Ti    0.03708    0.15657    0.16328
 17 Ti   -0.16518    0.21430    0.05099
 18 O    -0.07601   -0.09383    0.02937
 19 O     0.04986   -0.04028    0.08410
 20 O    -0.27964    0.01847   -0.45588
 21 O     0.12409   -0.03724    0.06685
 22 O     0.09829    0.11288   -0.07818
 23 O     0.06619   -0.12082    0.06836
 24 O    -1.75906   -0.02680    1.98285
 25 O    -0.21801   -0.03195    0.07570
 26 Ti    0.13680    0.10849    0.56706
 27 Ti    3.58058    0.18726    0.00094
 28 Ti   -0.20509    0.02964   -2.00377
 29 Ti   -0.52918    0.20062    0.43739
 30 O     0.15418   -0.12354   -0.09667
 31 O    -0.05005   -0.31646   -0.07296
 32 O    -1.28771    0.04916    0.72950
 33 O    -0.02041   -0.27960   -0.82706
 34 O     0.27738    0.11956   -0.89242
 35 O    -0.35940   -0.02070   -0.14484
 36 O     0.68655   -0.01275    0.92240
 37 Ti    0.00555    0.08296   -0.24446
 38 Ti    1.57056   -0.24264    0.78826
 39 Ti   -0.35855    0.03700    0.56245
 40 Ti   -1.18004    0.04258   -1.76042
 41 O     0.01952   -0.07771   -0.09049
 42 O     0.01879   -0.04038    0.12129
 43 O    -0.73819    0.37721   -0.74242
 44 O     0.04558    0.01096    0.40396
 45 O     0.18232   -0.10637    0.28218
 46 O     0.12176   -0.01297    0.10686
 47 O    -1.60555    0.07701    1.97293
 48 O    -1.05034   -0.03175    1.20084
 49 Ti    2.53379   -0.03661    1.04491
 50 Ti    3.38500   -0.36673    0.16187
 51 Ti   -0.48374   -0.08125   -2.26639
 52 Ti   -1.33936    0.04518   -1.42511
 53 O     0.26059    0.04483    0.05640
 54 O     0.07194    0.15680    0.02391
 55 O    -1.23252    0.05039    0.93489
 56 O    -0.92618    0.04096   -0.09052
 57 O     0.18170    0.01542   -0.93041
 58 O     0.26199    0.02324   -0.91188
 59 O    -0.33517    0.02587   -0.09500
 60 O    -0.02000   -0.09388    0.03307
 61 Ti   -0.27282   -0.16043   -0.10113
 62 Ti    0.98223    0.24815   -0.06894
 63 Ti    0.63384    0.02478   -0.65353
 64 Ti   -0.79971    0.00487   -0.89673
 65 O     0.02669    0.00326   -0.20894
 66 O    -0.20713    0.16021    0.28714
 67 O     1.25464   -2.09666   -2.74628
 68 O     0.63777   -0.04102   -0.49041
 69 O     0.31423    0.31791    0.49817
 70 O     0.04839    0.03077    0.21773
 71 O    -1.25020    0.04512    1.27559
 72 O    -1.20732    0.07406    1.60729
 73 Ti    2.58670   -0.09834    0.85458
 74 Ti    2.98585   -0.88877    0.83006
 75 Ti   -0.84632   -0.15302   -1.48936
 76 Ti   -1.18126   -0.47531   -1.77423
 77 O     0.17437    0.21018   -0.14332
 78 O     0.19924   -0.00953   -0.20386
 79 O    -0.82606   -0.01967   -0.04524
 80 O    -0.53810   -0.03872   -0.04940
 81 O     0.02835    0.18523   -0.74242
 82 O     0.23388    0.26614   -0.96387
 83 O     0.01002    0.09469    0.01641
 84 O     0.34925    0.11648    0.81205
 85 Ti   -0.24110    0.08966   -0.03292
 86 Ti    0.54212   -0.28686    0.21910
 87 Ti    0.01289   -0.08625    0.11844
 88 Ti   -0.62944   -0.43027   -1.64156
 89 O    -0.01836    0.08350    0.02857
 90 O    -0.12329   -0.26139    0.34509
 91 O    -0.14652    0.07361   -0.29444
 92 O     0.49309   -0.01886    0.15190
 93 O    -0.13263    0.02901    0.39220
 94 O    -0.02120    0.18859    0.02742
 95 V     2.70706   -3.29632   -1.76694
 96 O     0.34469   -1.05432    1.15940
 97 O     0.27911    0.56934   -0.11591
 98 O     0.02495   -0.03095    0.08292
 99 V    13.80124    6.77117    0.23194
100 O    -3.78638    1.17981    1.93027
101 O    -9.99843   -4.39609   -3.83984
102 O     0.30707   -1.66943    1.95009
103 H    -2.42777   -0.35425    3.92873
104 H    -3.80327    3.97436    1.44379

System changes: positions 

Initializing position-dependent things.

Density initialized from wave functions
          .------------------------.  
         /|                        |  
        / |                        |  
       /  |                        |  
      /   |                        |  
     /    |                        |  
    /     |                        |  
   /      |                        |  
  /       |                        |  
 *        |                        |  
 |        |                        |  
 |        |                        |  
 |        |                        |  
 |        O      O            O    |  
 |        |   Hi      O  H  OV O   |  
 |      O |    OV  O     OTi     Ti|  
 |        | Oi     Oi     O    O   |  
 |    O   |      O      O     TiO  |  
 |        TiO          Ti   O      |  
 |        OTi   TiO  O OiO  Tii    |  
 |  O  O  |O  TiTi   Ti    O  O  O |  
 |      Tii    OO    OO   O        |  
 |      OO| OO    OTii    Tii      |  
 |   O Ti | Tii     O   OO     O   |  
 |    O   |O     OOTi    Oi        |  
 |  Ti    TO   O  O    O     O     |  
 |  O    O|     Ti    Ti           |  
 |       Ti         O      O       |  
 |        |  O                     |  
 |        .------------------------.  
 |       /                        /   
 |      /                        /    
 |     /                        /     
 |    /                        /      
 |   /                        /       
 |  /                        /        
 | /                        /         
 |/                        /          
 *------------------------*           

Positions:
   0 O      9.981627    2.835891    7.394815    ( 0.0000,  0.0000,  0.0000)
   1 O      4.772672    0.956313    7.415080    ( 0.0000,  0.0000,  0.0000)
   2 Ti     2.989016    0.956704    8.311490    ( 0.0000,  0.0000,  0.0000)
   3 Ti     8.209262    2.779445    8.273415    ( 0.0000,  0.0000,  0.0000)
   4 Ti     0.642387    2.838450    8.979866    ( 0.0000,  0.0000,  0.0000)
   5 Ti     5.864992    0.921288    8.943022    ( 0.0000,  0.0000,  0.0000)
   6 O      1.090173    0.959092    8.924269    ( 0.0000,  0.0000,  0.0000)
   7 O      6.330723    2.837142    8.932811    ( 0.0000,  0.0000,  0.0000)
   8 O      9.247781    2.808803    9.824244    ( 0.0000,  0.0000,  0.0000)
   9 O      4.068825    0.950342    9.839484    ( 0.0000,  0.0000,  0.0000)
  10 O      7.769774    0.913966    8.324746    ( 0.0000,  0.0000,  0.0000)
  11 O      2.569841    2.891634    8.367207    ( 0.0000,  0.0000,  0.0000)
  12 O      1.089321    2.889954   10.984848    ( 0.0000,  0.0000,  0.0000)
  13 O      6.281689    0.920013   10.944941    ( 0.0000,  0.0000,  0.0000)
  14 Ti     4.389058    0.973693   11.901036    ( 0.0000,  0.0000,  0.0000)
  15 Ti     9.578980    2.830695   11.899808    ( 0.0000,  0.0000,  0.0000)
  16 Ti     2.016962    2.849745   12.512208    ( 0.0000,  0.0000,  0.0000)
  17 Ti     7.186672    0.935712   12.469504    ( 0.0000,  0.0000,  0.0000)
  18 O      2.571729    0.969621   12.704159    ( 0.0000,  0.0000,  0.0000)
  19 O      7.703290    2.861374   12.654927    ( 0.0000,  0.0000,  0.0000)
  20 O      0.377956    2.836048   13.371238    ( 0.0000,  0.0000,  0.0000)
  21 O      5.561911    1.026313   13.331182    ( 0.0000,  0.0000,  0.0000)
  22 O      9.173037    0.951976   11.938227    ( 0.0000,  0.0000,  0.0000)
  23 O      3.958944    2.927699   11.842364    ( 0.0000,  0.0000,  0.0000)
  24 O      9.991171    6.703194    7.375660    ( 0.0000,  0.0000,  0.0000)
  25 O      4.597236    4.776691    7.985632    ( 0.0000,  0.0000,  0.0000)
  26 Ti     2.765029    4.778732    7.970356    ( 0.0000,  0.0000,  0.0000)
  27 Ti     8.201050    6.730463    8.240706    ( 0.0000,  0.0000,  0.0000)
  28 Ti     0.685359    6.687142    9.131194    ( 0.0000,  0.0000,  0.0000)
  29 Ti     6.085628    4.757586    9.047069    ( 0.0000,  0.0000,  0.0000)
  30 O      1.053778    4.770971    8.927304    ( 0.0000,  0.0000,  0.0000)
  31 O      6.349787    6.695178    8.941573    ( 0.0000,  0.0000,  0.0000)
  32 O      9.245076    6.707017    9.798899    ( 0.0000,  0.0000,  0.0000)
  33 O      7.822195    4.765508    8.285777    ( 0.0000,  0.0000,  0.0000)
  34 O      2.569098    6.653213    8.372532    ( 0.0000,  0.0000,  0.0000)
  35 O      1.063531    6.589009   11.067687    ( 0.0000,  0.0000,  0.0000)
  36 O      5.955189    4.740730   10.955361    ( 0.0000,  0.0000,  0.0000)
  37 Ti     4.384146    4.785580   12.251993    ( 0.0000,  0.0000,  0.0000)
  38 Ti     9.534693    6.660374   11.819945    ( 0.0000,  0.0000,  0.0000)
  39 Ti     2.044047    6.644613   12.766149    ( 0.0000,  0.0000,  0.0000)
  40 Ti     7.253554    4.740199   12.560313    ( 0.0000,  0.0000,  0.0000)
  41 O      2.541611    4.717055   12.952113    ( 0.0000,  0.0000,  0.0000)
  42 O      7.651384    6.636159   12.613107    ( 0.0000,  0.0000,  0.0000)
  43 O      0.336187    6.692755   13.439250    ( 0.0000,  0.0000,  0.0000)
  44 O      5.674463    4.778973   13.516691    ( 0.0000,  0.0000,  0.0000)
  45 O      9.104899    4.764190   11.819060    ( 0.0000,  0.0000,  0.0000)
  46 O      3.945261    6.559756   11.787608    ( 0.0000,  0.0000,  0.0000)
  47 O      9.971570   10.521332    7.371311    ( 0.0000,  0.0000,  0.0000)
  48 O      4.822853    8.590322    7.383584    ( 0.0000,  0.0000,  0.0000)
  49 Ti     2.942253    8.594968    8.214711    ( 0.0000,  0.0000,  0.0000)
  50 Ti     8.146390   10.567872    8.225039    ( 0.0000,  0.0000,  0.0000)
  51 Ti     0.698810   10.528485    9.064092    ( 0.0000,  0.0000,  0.0000)
  52 Ti     5.907172    8.604172    8.913910    ( 0.0000,  0.0000,  0.0000)
  53 O      1.112935    8.584826    8.958651    ( 0.0000,  0.0000,  0.0000)
  54 O      6.285236   10.514871    8.934645    ( 0.0000,  0.0000,  0.0000)
  55 O      9.245250   10.483191    9.768210    ( 0.0000,  0.0000,  0.0000)
  56 O      4.073738    8.557930    9.742116    ( 0.0000,  0.0000,  0.0000)
[...]
  78 O      6.260329   14.334276    8.923741    ( 0.0000,  0.0000,  0.0000)
  79 O      9.242016   14.375414    9.835716    ( 0.0000,  0.0000,  0.0000)
  80 O      4.053669   12.455358    9.857066    ( 0.0000,  0.0000,  0.0000)
  81 O      7.768743   12.434280    8.370210    ( 0.0000,  0.0000,  0.0000)
  82 O      2.578893   14.325138    8.352451    ( 0.0000,  0.0000,  0.0000)
  83 O      1.102759   14.357633   10.999267    ( 0.0000,  0.0000,  0.0000)
  84 O      6.252540   12.531805   11.013897    ( 0.0000,  0.0000,  0.0000)
  85 Ti     4.381794   12.408595   11.968837    ( 0.0000,  0.0000,  0.0000)
  86 Ti     9.599721   14.377694   11.978546    ( 0.0000,  0.0000,  0.0000)
  87 Ti     2.054220   14.355979   12.504298    ( 0.0000,  0.0000,  0.0000)
  88 Ti     7.187382   12.490036   12.533890    ( 0.0000,  0.0000,  0.0000)
  89 O      2.548829   12.439298   12.753117    ( 0.0000,  0.0000,  0.0000)
  90 O      7.723207   14.383199   12.756663    ( 0.0000,  0.0000,  0.0000)
  91 O      0.430409   14.368959   13.392548    ( 0.0000,  0.0000,  0.0000)
  92 O      5.561542   12.394845   13.395899    ( 0.0000,  0.0000,  0.0000)
  93 O      9.178512   12.467817   11.974768    ( 0.0000,  0.0000,  0.0000)
  94 O      4.018430   14.373985   11.999241    ( 0.0000,  0.0000,  0.0000)
  95 V      3.919453    8.568128   14.782453    ( 0.0000,  0.0000,  0.0000)
  96 O      2.761394   10.107447   14.643447    ( 0.0000,  0.0000,  0.0000)
  97 O      3.021026    7.094770   14.499019    ( 0.0000,  0.0000,  0.0000)
  98 O      4.655388    8.383686   16.175895    ( 0.0000,  0.0000,  0.0000)
  99 V      9.865066    8.168367   15.106798    ( 0.0000,  0.0000,  0.0000)
 100 O     10.542725    9.427528   15.845999    ( 0.0000,  0.0000,  0.0000)
 101 O      8.004048    8.580279   14.636803    ( 0.0000,  0.0000,  0.0000)
 102 O      9.812150    6.982367   16.182881    ( 0.0000,  0.0000,  0.0000)
 103 H      7.378153    8.151572   15.254317    ( 0.0000,  0.0000,  0.0000)
 104 H      2.466514   10.837114   15.241395    ( 0.0000,  0.0000,  0.0000)

Unit cell:
           periodic     x           y           z      points  spacing
  1. axis:    yes   10.341746    0.000000    0.000000    54     0.1915
  2. axis:    yes   -0.000000   15.289380    0.000000    80     0.1911
  3. axis:    yes    0.000000    0.000000   23.497201   125     0.1880

  Lengths:  10.341746  15.289380  23.497201
  Angles:   90.000000  90.000000  90.000000

Effective grid spacing dv^(1/3) = 0.1902

                     log10-error:    total        iterations:
           time      wfs    density  energy       fermi  poisson
iter:   1  16:47:28  -3.81   +inf  -858.212131    3             
iter:   2  16:47:59  -4.72  -3.90  -858.212216    2             
iter:   3  16:48:30  -5.30  -3.98  -858.211556    3             
iter:   4  16:49:01  -5.21  -4.04  -858.211814    3             
iter:   5  16:49:33  -5.66  -4.11  -858.211414    3             
iter:   6  16:50:04  -5.87  -4.23  -858.211329    3             
iter:   7  16:50:35  -6.18  -4.43  -858.211350    2             
iter:   8  16:51:06  -6.22  -4.57  -858.211388    2             
iter:   9  16:51:37  -6.87  -4.71  -858.211392    2             
iter:  10  16:52:08  -7.21  -4.87  -858.211403    2             
iter:  11  16:52:40  -7.44  -4.91  -858.211348    2             

Converged after 11 iterations.

Dipole moment: (-4.950893, 2.571238, -1.218287) |e|*Ang

Energy contributions relative to reference atoms: (reference = -935653.237240)

Kinetic:       +610.564806
Potential:     -778.396953
External:        +0.000000
XC:            -696.474458
Entropy (-ST):   -0.538149
Local:           +6.364333
--------------------------
Free energy:   -858.480423
Extrapolated:  -858.211348

Fermi level: -1.34236

Showing all kpts
 Kpt  Band  Eigenvalues  Occupancy
  0   411     -2.84016    1.00000
  0   412     -1.28410    0.35834
  0   413     -1.23522    0.25514
  0   414     -1.18294    0.16880

  1   411     -2.84028    1.00000
  1   412     -1.27882    0.34629
  1   413     -1.24777    0.27972
  1   414     -1.17788    0.16181



Forces in eV/Ang:
  0 O    -1.44538   -0.07008    1.19800
  1 O    -1.03556    0.02027    1.21715
  2 Ti    2.51920   -0.06761    1.21168
  3 Ti    2.59260    0.45339    0.85898
  4 Ti   -0.24002    0.08034   -1.18283
  5 Ti   -1.74137    0.15114   -1.07236
  6 O     0.28464   -0.10070   -0.14120
  7 O     0.18384    0.31335   -0.13050
  8 O    -1.13487    0.12762    0.02071
  9 O    -0.71858    0.05469   -0.15973
 10 O     0.13771    0.50578   -1.10502
 11 O     0.25068   -0.17216   -0.83872
 12 O    -0.01321    0.00391    0.02489
 13 O     0.00659    0.00674    0.00579
 14 Ti    0.00384    0.00481   -0.00540
 15 Ti   -0.01348   -0.02096    0.00753
 16 Ti   -0.00170   -0.00142   -0.00215
 17 Ti   -0.00251    0.00093   -0.00463
 18 O     0.00086    0.00112    0.00623
 19 O     0.00839   -0.01705    0.02194
 20 O     0.00412   -0.00072    0.01934
 21 O    -0.00129    0.00425    0.00563
 22 O    -0.00162   -0.01649   -0.00308
 23 O     0.01831   -0.00864   -0.00593
 24 O    -1.58691   -0.04455    2.10603
 25 O     0.01326   -0.02324    0.14463
 26 Ti    0.06767    0.05856    0.56099
 27 Ti    3.72444    0.33313    0.24958
 28 Ti   -0.58707   -0.03888   -1.94709
 29 Ti   -0.55630    0.18729   -0.03693
 30 O     0.14410   -0.01191   -0.02159
 31 O    -0.11042   -0.37165    0.02613
 32 O    -1.22389    0.06267    0.82691
 33 O    -0.16268   -0.26421   -0.80322
 34 O     0.25081    0.12224   -0.81208
 35 O     0.01440    0.06837   -0.01566
 36 O     0.01321   -0.00135    0.01420
 37 Ti    0.01340   -0.01868   -0.00162
 38 Ti   -0.01469   -0.08591   -0.03560
 39 Ti    0.05972   -0.03861   -0.05699
 40 Ti   -0.00663   -0.00687   -0.00942
 41 O     0.02849    0.00972    0.01652
 42 O    -0.04425   -0.02399   -0.03918
 43 O    -0.15151   -0.34903    0.02390
 44 O     0.00854   -0.01257    0.03359
 45 O    -0.02650   -0.02176   -0.12317
 46 O     0.00311   -0.01332    0.02121
 47 O    -1.55777    0.07958    1.85514
 48 O    -0.90677   -0.03787    1.27074
 49 Ti    2.61808    0.05470    1.12001
 50 Ti    3.95356   -0.39436    0.71242
 51 Ti   -1.27551    0.02361   -2.60866
 52 Ti   -1.48654    0.18633   -1.22224
 53 O     0.26191   -0.11347    0.19922
 54 O    -0.02532    0.10641    0.09963
 55 O    -1.09739    0.19539    0.72276
 56 O    -0.83950    0.05355    0.21490
 57 O     0.10077   -0.09596   -0.96594
 58 O     0.34540   -0.03215   -0.96330
 59 O    -0.03792   -0.03010    0.08511
 60 O    -0.00684    0.00854   -0.00098
 61 Ti   -0.04398    0.09308   -0.00524
 62 Ti    0.04214    0.02322   -0.01498
 63 Ti   -0.01892    0.08817    0.15547
 64 Ti    0.00909    0.01895   -0.09690
 65 O    -0.03652    0.03495    0.01650
 66 O    -0.03291   -0.01496   -0.01444
 67 O    -0.00601    0.08621    0.10745
 68 O    -0.00114    0.05964   -0.03301
 69 O     0.03000   -0.00295    0.02874
 70 O     0.00826    0.01759   -0.04891
 71 O    -1.19070    0.05844    1.29485
 72 O    -1.18552    0.08170    1.61383
 73 Ti    2.59717   -0.10931    0.95659
 74 Ti    3.12739   -0.92422    1.00298
 75 Ti   -1.01160   -0.21722   -1.32188
 76 Ti   -1.34760   -0.47812   -2.04546
 77 O     0.22352    0.38959   -0.18744
 78 O     0.19410    0.06193   -0.21604
 79 O    -0.80094   -0.04862    0.03452
 80 O    -0.58561   -0.02592    0.10244
 81 O    -0.03377    0.25386   -0.76422
 82 O     0.23258    0.29611   -0.95229
 83 O    -0.00574    0.00698    0.01581
 84 O     0.00365   -0.00370    0.00453
 85 Ti    0.00797    0.03225   -0.00256
 86 Ti   -0.00888   -0.00258    0.00793
 87 Ti   -0.00565    0.00071   -0.00754
 88 Ti   -0.00239   -0.02035   -0.01941
 89 O    -0.00488    0.02293    0.00543
 90 O    -0.00158    0.00558    0.00421
 91 O     0.00379    0.00580    0.00471
 92 O    -0.01223    0.02999   -0.00050
 93 O    -0.01214   -0.01749   -0.00671
 94 O     0.00267    0.00216   -0.00900
 95 V     0.02837    0.12336   -0.14073
 96 O     0.43017    0.10154   -0.25640
 97 O    -0.11683    0.16131    0.02091
 98 O    -0.10865    0.32950   -0.01754
 99 V    -0.04303   -0.37392   -0.04854
100 O     0.12690   -0.13557   -0.08720
101 O    -0.13280   -0.01503   -0.08314
102 O    -0.22521    0.01644   -0.02496
103 H    -0.01434    0.01778    0.02474
104 H     0.32463   -0.77244    0.02927

System changes: positions 

Initializing position-dependent things.

Density initialized from wave functions
          .------------------------.  
         /|                        |  
        / |                        |  
       /  |                        |  
      /   |                        |  
     /    |                        |  
    /     |                        |  
   /      |                        |  
  /       |                        |  
 *        |                        |  
 |        |                        |  
 |        |                        |  
 |        |                        |  
 |     O  O  H   O                 |  
 |        |   Oi      O H   OO     |  
 |      O |   O V  O     OTi  V  Ti|  
 |        | Oi     Oi     O    O   |  
 |    O   |      O     OTi    TiO  |  
 |        TiO     O         O      |  
 |        OTi O OTi  O OiO  Tii    |  
 |  O  O  |O  TiTi   Ti   OO  O  O |  
 |      Tii    OO    OO            |  
 |      OO| OO    OTii    Tii      |  
 |   O Ti | Tii     O   OO     O   |  
 |    O   |O     OOTi    Oi        |  
 |  Ti    TO   O  O    O     O     |  
 |  O    O|     Ti    Ti           |  
 |       Ti         O      O       |  
 |        |  O                     |  
 |        .------------------------.  
 |       /                        /   
 |      /                        /    
 |     /                        /     
 |    /                        /      
 |   /                        /       
 |  /                        /        
 | /                        /         
 |/                        /          
 *------------------------*           

Positions:
   0 O      9.981627    2.835891    7.394815    ( 0.0000,  0.0000,  0.0000)
   1 O      4.772672    0.956313    7.415080    ( 0.0000,  0.0000,  0.0000)
   2 Ti     2.989016    0.956704    8.311490    ( 0.0000,  0.0000,  0.0000)
   3 Ti     8.209262    2.779445    8.273415    ( 0.0000,  0.0000,  0.0000)
   4 Ti     0.642387    2.838450    8.979866    ( 0.0000,  0.0000,  0.0000)
   5 Ti     5.864992    0.921288    8.943022    ( 0.0000,  0.0000,  0.0000)
   6 O      1.090173    0.959092    8.924269    ( 0.0000,  0.0000,  0.0000)
   7 O      6.330723    2.837142    8.932811    ( 0.0000,  0.0000,  0.0000)
   8 O      9.247781    2.808803    9.824244    ( 0.0000,  0.0000,  0.0000)
   9 O      4.068825    0.950342    9.839484    ( 0.0000,  0.0000,  0.0000)
  10 O      7.769774    0.913966    8.324746    ( 0.0000,  0.0000,  0.0000)
  11 O      2.569841    2.891634    8.367207    ( 0.0000,  0.0000,  0.0000)
  12 O      1.084033    2.909498   11.022103    ( 0.0000,  0.0000,  0.0000)
  13 O      6.274081    0.940808   10.955602    ( 0.0000,  0.0000,  0.0000)
  14 Ti     4.399090    0.983010   11.936312    ( 0.0000,  0.0000,  0.0000)
  15 Ti     9.599866    2.894906   11.981064    ( 0.0000,  0.0000,  0.0000)
  16 Ti     2.030199    2.882754   12.538116    ( 0.0000,  0.0000,  0.0000)
  17 Ti     7.204810    0.993646   12.468171    ( 0.0000,  0.0000,  0.0000)
  18 O      2.571343    1.005739   12.742113    ( 0.0000,  0.0000,  0.0000)
  19 O      7.693795    2.927057   12.596395    ( 0.0000,  0.0000,  0.0000)
  20 O      0.389289    2.867985   13.406570    ( 0.0000,  0.0000,  0.0000)
  21 O      5.576305    1.076581   13.346046    ( 0.0000,  0.0000,  0.0000)
  22 O      9.191753    0.991770   11.998335    ( 0.0000,  0.0000,  0.0000)
  23 O      3.965069    2.971641   11.866197    ( 0.0000,  0.0000,  0.0000)
  24 O      9.991171    6.703194    7.375660    ( 0.0000,  0.0000,  0.0000)
  25 O      4.597236    4.776691    7.985632    ( 0.0000,  0.0000,  0.0000)
  26 Ti     2.765029    4.778732    7.970356    ( 0.0000,  0.0000,  0.0000)
  27 Ti     8.201050    6.730463    8.240706    ( 0.0000,  0.0000,  0.0000)
  28 Ti     0.685359    6.687142    9.131194    ( 0.0000,  0.0000,  0.0000)
  29 Ti     6.085628    4.757586    9.047069    ( 0.0000,  0.0000,  0.0000)
  30 O      1.053778    4.770971    8.927304    ( 0.0000,  0.0000,  0.0000)
  31 O      6.349787    6.695178    8.941573    ( 0.0000,  0.0000,  0.0000)
  32 O      9.245076    6.707017    9.798899    ( 0.0000,  0.0000,  0.0000)
  33 O      7.822195    4.765508    8.285777    ( 0.0000,  0.0000,  0.0000)
  34 O      2.569098    6.653213    8.372532    ( 0.0000,  0.0000,  0.0000)
  35 O      1.011417    6.571928   11.145426    ( 0.0000,  0.0000,  0.0000)
  36 O      5.987628    4.796145   10.974631    ( 0.0000,  0.0000,  0.0000)
  37 Ti     4.364936    4.806235   12.295570    ( 0.0000,  0.0000,  0.0000)
  38 Ti     9.592335    6.777786   11.883199    ( 0.0000,  0.0000,  0.0000)
  39 Ti     2.100572    6.743682   12.839202    ( 0.0000,  0.0000,  0.0000)
  40 Ti     7.216627    4.833778   12.415332    ( 0.0000,  0.0000,  0.0000)
  41 O      2.518308    4.773284   12.972139    ( 0.0000,  0.0000,  0.0000)
  42 O      7.654582    6.689815   12.607893    ( 0.0000,  0.0000,  0.0000)
  43 O      0.318801    7.237312   13.490664    ( 0.0000,  0.0000,  0.0000)
  44 O      5.696055    4.817028   13.507440    ( 0.0000,  0.0000,  0.0000)
  45 O      9.194544    4.847898   12.026173    ( 0.0000,  0.0000,  0.0000)
  46 O      3.907168    6.615126   11.841068    ( 0.0000,  0.0000,  0.0000)
  47 O      9.971570   10.521332    7.371311    ( 0.0000,  0.0000,  0.0000)
  48 O      4.822853    8.590322    7.383584    ( 0.0000,  0.0000,  0.0000)
  49 Ti     2.942253    8.594968    8.214711    ( 0.0000,  0.0000,  0.0000)
  50 Ti     8.146390   10.567872    8.225039    ( 0.0000,  0.0000,  0.0000)
  51 Ti     0.698810   10.528485    9.064092    ( 0.0000,  0.0000,  0.0000)
  52 Ti     5.907172    8.604172    8.913910    ( 0.0000,  0.0000,  0.0000)
  53 O      1.112935    8.584826    8.958651    ( 0.0000,  0.0000,  0.0000)
  54 O      6.285236   10.514871    8.934645    ( 0.0000,  0.0000,  0.0000)
  55 O      9.245250   10.483191    9.768210    ( 0.0000,  0.0000,  0.0000)
  56 O      4.073738    8.557930    9.742116    ( 0.0000,  0.0000,  0.0000)
  57 O      7.778285    8.619007    8.294600    ( 0.0000,  0.0000,  0.0000)
  58 O      2.592027   10.490499    8.360042    ( 0.0000,  0.0000,  0.0000)
  59 O      1.079085   10.643088   10.992287    ( 0.0000,  0.0000,  0.0000)
  60 O      6.196261    8.602970   11.106607    ( 0.0000,  0.0000,  0.0000)
  61 Ti     4.330383    8.612033   11.653043    ( 0.0000,  0.0000,  0.0000)
  62 Ti     9.534307   10.583677   11.838479    ( 0.0000,  0.0000,  0.0000)
  63 Ti     2.011923   10.513038   12.593862    ( 0.0000,  0.0000,  0.0000)
  64 Ti     7.236714    8.664753   12.667468    ( 0.0000,  0.0000,  0.0000)
  65 O      2.513853    8.630334   12.408829    ( 0.0000,  0.0000,  0.0000)
  66 O      7.658742   10.578069   12.631082    ( 0.0000,  0.0000,  0.0000)
  67 O      0.294336   10.376572   13.288270    ( 0.0000,  0.0000,  0.0000)
  68 O      5.242699    8.596285   13.502422    ( 0.0000,  0.0000,  0.0000)
  69 O      8.996463    8.639391   11.847832    ( 0.0000,  0.0000,  0.0000)
  70 O      4.006771   10.525762   11.849656    ( 0.0000,  0.0000,  0.0000)
  71 O      9.946164   14.323706    7.409435    ( 0.0000,  0.0000,  0.0000)
  72 O      4.782677   12.409006    7.440233    ( 0.0000,  0.0000,  0.0000)
  73 Ti     3.023609   12.421072    8.299429    ( 0.0000,  0.0000,  0.0000)
  74 Ti     8.171237   14.356381    8.301328    ( 0.0000,  0.0000,  0.0000)
  75 Ti     0.672879   14.318828    8.956928    ( 0.0000,  0.0000,  0.0000)
  76 Ti     5.863475   12.448168    9.057113    ( 0.0000,  0.0000,  0.0000)
  77 O      1.091778   12.408602    8.922494    ( 0.0000,  0.0000,  0.0000)
  78 O      6.260329   14.334276    8.923741    ( 0.0000,  0.0000,  0.0000)
  79 O      9.242016   14.375414    9.835716    ( 0.0000,  0.0000,  0.0000)
  80 O      4.053669   12.455358    9.857066    ( 0.0000,  0.0000,  0.0000)
  81 O      7.768743   12.434280    8.370210    ( 0.0000,  0.0000,  0.0000)
  82 O      2.578893   14.325138    8.352451    ( 0.0000,  0.0000,  0.0000)
  83 O      1.102689   14.357849   10.999315    ( 0.0000,  0.0000,  0.0000)
  84 O      6.252649   12.531830   11.014146    ( 0.0000,  0.0000,  0.0000)
  85 Ti     4.381665   12.408735   11.968991    ( 0.0000,  0.0000,  0.0000)
  86 Ti     9.599619   14.378101   11.978832    ( 0.0000,  0.0000,  0.0000)
  87 Ti     2.054316   14.355993   12.504183    ( 0.0000,  0.0000,  0.0000)
  88 Ti     7.187238   12.490600   12.534237    ( 0.0000,  0.0000,  0.0000)
  89 O      2.548760   12.439452   12.753267    ( 0.0000,  0.0000,  0.0000)
  90 O      7.723125   14.383824   12.756900    ( 0.0000,  0.0000,  0.0000)
  91 O      0.430552   14.369134   13.392581    ( 0.0000,  0.0000,  0.0000)
  92 O      5.561290   12.395278   13.396190    ( 0.0000,  0.0000,  0.0000)
  93 O      9.178018   12.468174   11.974745    ( 0.0000,  0.0000,  0.0000)
  94 O      4.018476   14.374182   11.999319    ( 0.0000,  0.0000,  0.0000)
  95 V      3.917176    8.570063   14.783357    ( 0.0000,  0.0000,  0.0000)
  96 O      2.758745   10.110601   14.643059    ( 0.0000,  0.0000,  0.0000)
  97 O      3.020885    7.095601   14.499213    ( 0.0000,  0.0000,  0.0000)
  98 O      4.654149    8.384507   16.176143    ( 0.0000,  0.0000,  0.0000)
  99 V      9.862403    8.161839   15.106938    ( 0.0000,  0.0000,  0.0000)
 100 O     10.539957    9.418493   15.847856    ( 0.0000,  0.0000,  0.0000)
 101 O      8.003090    8.576142   14.637518    ( 0.0000,  0.0000,  0.0000)
 102 O      9.813424    6.975425   16.182629    ( 0.0000,  0.0000,  0.0000)
 103 H      7.377113    8.148319   15.255316    ( 0.0000,  0.0000,  0.0000)
 104 H      2.476878   10.846526   15.238976    ( 0.0000,  0.0000,  0.0000)

Unit cell:
           periodic     x           y           z      points  spacing
  1. axis:    yes   10.341746    0.000000    0.000000    54     0.1915
  2. axis:    yes   -0.000000   15.289380    0.000000    80     0.1911
  3. axis:    yes    0.000000    0.000000   23.497201   125     0.1880

  Lengths:  10.341746  15.289380  23.497201
  Angles:   90.000000  90.000000  90.000000

Effective grid spacing dv^(1/3) = 0.1902

                     log10-error:    total        iterations:
           time      wfs    density  energy       fermi  poisson
iter:   1  16:55:09  -3.78   +inf  -858.214556    3             
iter:   2  16:55:40  -4.66  -3.82  -858.210992    3             
iter:   3  16:56:11  -5.27  -3.87  -858.211855    3             
iter:   4  16:56:42  -5.29  -3.97  -858.211379    3             
iter:   5  16:57:13  -5.36  -4.10  -858.211300    3             
iter:   6  16:57:45  -5.61  -4.18  -858.211375    3             
iter:   7  16:58:17  -6.10  -4.32  -858.211147    2             
iter:   8  16:58:48  -6.21  -4.52  -858.211185    2             
iter:   9  16:59:19  -6.45  -4.60  -858.211199    2             
iter:  10  16:59:50  -6.94  -4.81  -858.211284    2             
iter:  11  17:00:21  -7.48  -4.85  -858.211205    2             

Converged after 11 iterations.

Dipole moment: (-4.938047, 2.607181, -1.216475) |e|*Ang

Energy contributions relative to reference atoms: (reference = -935653.237240)

Kinetic:       +610.672160
Potential:     -778.484370
External:        +0.000000
XC:            -696.493231
Entropy (-ST):   -0.538228
Local:           +6.363350
--------------------------
Free energy:   -858.480319
Extrapolated:  -858.211205

Fermi level: -1.34184

Showing all kpts
 Kpt  Band  Eigenvalues  Occupancy
  0   411     -2.83781    1.00000
  0   412     -1.28360    0.35837
  0   413     -1.23460    0.25494
  0   414     -1.18237    0.16872

  1   411     -2.83793    1.00000
  1   412     -1.27831    0.34631
  1   413     -1.24717    0.27956
  1   414     -1.17730    0.16173


