
  ___ ___ ___ _ _ _  
 |   |   |_  | | | | 
 | | | | | . | | | | 
 |__ |  _|___|_____|  1.5.1
 |___|_|             

User:   siva@s84n46.grendel.cscaa.dk
Date:   Thu Feb 27 10:51:25 2020
Arch:   x86_64
Pid:    5758
Python: 3.6.3
gpaw:   /home/siva/gpaw-1.5.1/gpaw
_gpaw:  /home/siva/gpaw-1.5.1/build/bin.linux-x86_64-3.6/gpaw-python
ase:    /home/siva/env1.5/lib/python3.6/site-packages/ase (version 3.17.0)
numpy:  /home/siva/env1.5/lib/python3.6/site-packages/numpy (version 1.16.0)
scipy:  /home/siva/env1.5/lib/python3.6/site-packages/scipy (version 1.2.0)
units:  Angstrom and eV
cores:  100
Extra parameters: {'blacs': True}

Input parameters:
  basis: dzp
  kpts: [2 2 1]
  maxiter: 99
  mode: {ecut: 500.0,
         gammacentered: False,
         name: pw}
  xc: PBE

System changes: positions, numbers, cell, pbc, initial_charges, initial_magmoms 

Initialize ...

O-setup:
  name: Oxygen
  id: 32ecd46bf208036f09c70b0ec9a88b78
  Z: 8
  valence: 6
  core: 2
  charge: 0.0
  file: /home/wido/sw/gpaw/basis/gpaw-setups-0.9.20000/O.PBE.gz
  cutoffs: 0.67(comp), 1.17(filt), 0.83(core), lmax=2
  valence states:
                energy  radius
    2s(2.00)   -23.961   0.688
    2p(4.00)    -9.029   0.598
    *s           3.251   0.688
    *p          18.182   0.598
    *d           0.000   0.619

  LCAO basis set for O:
    Name: dzp
    File: /home/wido/sw/gpaw/basis/gpaw-setups-0.9.20000/O.dzp.basis.gz
    Number of radial functions: 5
    Number of spherical harmonics: 13
      l=0, rc=4.3438 Bohr: 2s-sz confined orbital
      l=1, rc=5.3906 Bohr: 2p-sz confined orbital
      l=0, rc=2.2969 Bohr: 2s-dz split-valence wave
      l=1, rc=2.8906 Bohr: 2p-dz split-valence wave
      l=2, rc=5.3906 Bohr: d-type Gaussian polarization

Ti-setup:
  name: Titanium
  id: d282db07e62ae71292040bf25b25ccdd
  Z: 22
  valence: 12
  core: 10
  charge: 0.0
  file: /home/wido/sw/gpaw/basis/gpaw-setups-0.9.20000/Ti.PBE.gz
  cutoffs: 1.22(comp), 2.23(filt), 1.02(core), lmax=2
  valence states:
                energy  radius
    3s(2.00)   -62.623   1.270
    4s(2.00)    -4.466   1.270
    3p(6.00)   -38.862   1.058
    4p(0.00)    -1.466   1.058
    3d(2.00)    -4.258   1.058
    *d          22.953   1.058

  LCAO basis set for Ti:
    Name: dzp
    File: /home/wido/sw/gpaw/basis/gpaw-setups-0.9.20000/Ti.dzp.basis.gz
    Number of radial functions: 11
    Number of spherical harmonics: 29
      l=0, rc=3.4375 Bohr: 3s-sz confined orbital
      l=0, rc=9.9062 Bohr: 4s-sz confined orbital
      l=1, rc=3.8906 Bohr: 3p-sz confined orbital
      l=1, rc=13.1094 Bohr: 4p-sz confined orbital
      l=2, rc=6.6250 Bohr: 3d-sz confined orbital
      l=0, rc=2.1406 Bohr: 3s-dz split-valence wave
      l=0, rc=6.0156 Bohr: 4s-dz split-valence wave
      l=1, rc=2.3125 Bohr: 3p-dz split-valence wave
      l=1, rc=8.1094 Bohr: 4p-dz split-valence wave
      l=2, rc=3.8594 Bohr: 3d-dz split-valence wave
      l=1, rc=9.9062 Bohr: p-type Gaussian polarization

V-setup:
  name: Vanadium
  id: a8354638d66c808f8c867a10b63fd727
  Z: 23
  valence: 13
  core: 10
  charge: 0.0
  file: /home/wido/sw/gpaw/basis/gpaw-setups-0.9.20000/V.PBE.gz
  cutoffs: 1.19(comp), 2.14(filt), 0.96(core), lmax=2
  valence states:
                energy  radius
    3s(2.00)   -70.222   1.254
    4s(2.00)    -4.702   1.254
    3p(6.00)   -44.043   1.281
    4p(0.00)    -1.444   1.281
    3d(3.00)    -5.164   1.169
    *d          22.047   1.169

  LCAO basis set for V:
    Name: dzp
    File: /home/wido/sw/gpaw/basis/gpaw-setups-0.9.20000/V.dzp.basis.gz
    Number of radial functions: 11
    Number of spherical harmonics: 29
      l=0, rc=3.2656 Bohr: 3s-sz confined orbital
      l=0, rc=9.5312 Bohr: 4s-sz confined orbital
      l=1, rc=3.6719 Bohr: 3p-sz confined orbital
      l=1, rc=12.8750 Bohr: 4p-sz confined orbital
      l=2, rc=6.0938 Bohr: 3d-sz confined orbital
      l=0, rc=2.0625 Bohr: 3s-dz split-valence wave
      l=0, rc=5.7656 Bohr: 4s-dz split-valence wave
      l=1, rc=2.4062 Bohr: 3p-dz split-valence wave
      l=1, rc=7.8906 Bohr: 4p-dz split-valence wave
      l=2, rc=3.6562 Bohr: 3d-dz split-valence wave
      l=1, rc=9.5312 Bohr: p-type Gaussian polarization

H-setup:
  name: Hydrogen
  id: d65de229564ff8ea4db303e23b6d1ecf
  Z: 1
  valence: 1
  core: 0
  charge: 0.0
  file: /home/wido/sw/gpaw/basis/gpaw-setups-0.9.20000/H.PBE.gz
  cutoffs: 0.48(comp), 0.85(filt), 0.53(core), lmax=2
  valence states:
                energy  radius
    1s(1.00)    -6.494   0.476
    *s          20.717   0.476
    *p           0.000   0.476

  LCAO basis set for H:
    Name: dzp
    File: /home/wido/sw/gpaw/basis/gpaw-setups-0.9.20000/H.dzp.basis.gz
    Number of radial functions: 3
    Number of spherical harmonics: 5
      l=0, rc=6.4219 Bohr: 1s-sz confined orbital
      l=0, rc=3.6094 Bohr: 1s-dz split-valence wave
      l=1, rc=6.4219 Bohr: p-type Gaussian polarization

Reference energy: -935653.237240

Spin-paired calculation

Occupation numbers:
  Fermi-Dirac: width=0.1000 eV

Convergence criteria:
  Maximum total energy change: 0.0005 eV / electron
  Maximum integral of absolute density change: 0.0001 electrons
  Maximum integral of absolute eigenstate change: 4e-08 eV^2
  Maximum number of iterations: 99

Symmetries present (total): 1

  ( 1  0  0)
  ( 0  1  0)
  ( 0  0  1)

4 k-points: 2 x 2 x 1 Monkhorst-Pack grid
2 k-points in the irreducible part of the Brillouin zone
       k-points in crystal coordinates                weights
   0:     0.25000000   -0.25000000    0.00000000          2/4
   1:     0.25000000    0.25000000    0.00000000          2/4

Wave functions: Plane wave expansion
  Cutoff energy: 500.000 eV
  Number of coefficients (min, max): 94343, 94343
  Pulay-stress correction: 0.000000 eV/Ang^3 (de/decut=0.000000)
  Using FFTW library
  ScaLapack parameters: grid=1x1, blocksize=None
  Wavefunction extrapolation:
    Improved wavefunction reuse through dual PAW basis 

Eigensolver
   Davidson(niter=2, smin=None, normalize=True) 

Densities:
  Coarse grid: 54*80*125 grid
  Fine grid: 108*160*250 grid
  Total Charge: 0.000000 

Density mixing:
  Method: separate
  Backend: pulay
  Linear mixing parameter: 0.05
  Mixing with 5 old densities
  Damping of long wave oscillations: 50 

Hamiltonian:
  XC and Coulomb potentials evaluated on a 108*160*250 grid
  Using the PBE Exchange-Correlation functional
 

XC parameters: PBE with 2 nearest neighbor stencil

Memory estimate:
  Process memory now: 331.39 MiB
  Calculator: 1549.87 MiB
    Density: 33.11 MiB
      Arrays: 10.71 MiB
      Localized functions: 18.27 MiB
      Mixer: 4.12 MiB
    Hamiltonian: 7.53 MiB
      Arrays: 7.00 MiB
      XC: 0.00 MiB
      Poisson: 0.00 MiB
      vbar: 0.53 MiB
    Wavefunctions: 1509.23 MiB
      Arrays psit_nG: 719.78 MiB
      Eigensolver: 765.14 MiB
      Projections: 1.16 MiB
      Projectors: 2.09 MiB
      PW-descriptor: 21.07 MiB

Total number of cores used: 20
Parallelization over k-points: 2
Domain decomposition: 1 x 2 x 5

Number of atoms: 105
Number of atomic orbitals: 1893
Number of bands in calculation: 500
Bands to converge: occupied states only
Number of valence electrons: 826

... initialized

Initializing position-dependent things.

Density initialized from atomic densities
Creating initial wave functions:
  500 bands from LCAO basis set

          .------------------------.  
         /|                        |  
        / |                        |  
       /  |                        |  
      /   |                        |  
     /    |                        |  
    /     |                        |  
   /      |                        |  
  /       |                        |  
 *        |                        |  
 |        |                        |  
 |        |                        |  
 |        |                   O    |  
 |        O   H  O          O      |  
 |        |   Oi      O  H  OV     |  
 |      O |    OV  O      Oi     Ti|  
 |        | Oi     Oi     O    O   |  
 |    O   |      O     OTi    TiO  |  
 |        TiO     O    O    O      |  
 |        OTi   TiO  O TiO  Tii    |  
 |  O  O  |O  TiTi   Ti    O  O  O |  
 |      Tii  O OO   OOO   O        |  
 |      OO| O     OTii    Tii      |  
 |   O Ti | Tii     O   OO     O   |  
 |    O   |O     OOTi    Oi        |  
 |  Ti    |Oi  O  O    O     O     |  
 |  O    O|     Ti    Ti           |  
 |       Ti         O      O       |  
 |        |  O                     |  
 |        .------------------------.  
 |       /                        /   
 |      /                        /    
 |     /                        /     
 |    /                        /      
 |   /                        /       
 |  /                        /        
 | /                        /         
 |/                        /          
 *------------------------*           

Positions:
   0 O      9.983327    2.826717    7.405169    ( 0.0000,  0.0000,  0.0000)
   1 O      4.777925    0.950160    7.421038    ( 0.0000,  0.0000,  0.0000)
   2 Ti     2.992771    0.951953    8.316961    ( 0.0000,  0.0000,  0.0000)
   3 Ti     8.214264    2.770866    8.280353    ( 0.0000,  0.0000,  0.0000)
   4 Ti     0.649548    2.836298    8.986825    ( 0.0000,  0.0000,  0.0000)
   5 Ti     5.867036    0.914346    8.949845    ( 0.0000,  0.0000,  0.0000)
   6 O      1.096680    0.957856    8.927281    ( 0.0000,  0.0000,  0.0000)
   7 O      6.330111    2.833354    8.943215    ( 0.0000,  0.0000,  0.0000)
   8 O      9.246073    2.818125    9.835439    ( 0.0000,  0.0000,  0.0000)
   9 O      4.072344    0.939541    9.847174    ( 0.0000,  0.0000,  0.0000)
  10 O      7.774441    0.909061    8.335563    ( 0.0000,  0.0000,  0.0000)
  11 O      2.582685    2.890105    8.382110    ( 0.0000,  0.0000,  0.0000)
  12 O      1.092947    2.884611   10.989468    ( 0.0000,  0.0000,  0.0000)
  13 O      6.279953    0.915543   10.949186    ( 0.0000,  0.0000,  0.0000)
  14 Ti     4.387837    0.968231   11.902654    ( 0.0000,  0.0000,  0.0000)
  15 Ti     9.573605    2.829177   11.904049    ( 0.0000,  0.0000,  0.0000)
  16 Ti     2.017258    2.840341   12.514755    ( 0.0000,  0.0000,  0.0000)
  17 Ti     7.187753    0.927357   12.473300    ( 0.0000,  0.0000,  0.0000)
  18 O      2.577706    0.970043   12.711453    ( 0.0000,  0.0000,  0.0000)
  19 O      7.693879    2.863674   12.644066    ( 0.0000,  0.0000,  0.0000)
  20 O      0.384852    2.829634   13.383022    ( 0.0000,  0.0000,  0.0000)
  21 O      5.555591    1.021353   13.333299    ( 0.0000,  0.0000,  0.0000)
  22 O      9.171866    0.949366   11.953730    ( 0.0000,  0.0000,  0.0000)
  23 O      3.958369    2.932930   11.830757    ( 0.0000,  0.0000,  0.0000)
  24 O      9.991155    6.702438    7.394704    ( 0.0000,  0.0000,  0.0000)
  25 O      4.618599    4.771370    7.946370    ( 0.0000,  0.0000,  0.0000)
  26 Ti     2.775043    4.775937    7.983327    ( 0.0000,  0.0000,  0.0000)
  27 Ti     8.215116    6.733658    8.263758    ( 0.0000,  0.0000,  0.0000)
  28 Ti     0.698994    6.682604    9.155328    ( 0.0000,  0.0000,  0.0000)
  29 Ti     6.091392    4.752901    9.031818    ( 0.0000,  0.0000,  0.0000)
  30 O      1.061195    4.769445    8.936857    ( 0.0000,  0.0000,  0.0000)
  31 O      6.347502    6.689180    8.953041    ( 0.0000,  0.0000,  0.0000)
  32 O      9.247434    6.689998    9.820961    ( 0.0000,  0.0000,  0.0000)
  33 O      7.814993    4.761002    8.270793    ( 0.0000,  0.0000,  0.0000)
  34 O      2.586823    6.648076    8.393045    ( 0.0000,  0.0000,  0.0000)
  35 O      1.072093    6.605217   11.085181    ( 0.0000,  0.0000,  0.0000)
  36 O      5.970569    4.739143   10.948407    ( 0.0000,  0.0000,  0.0000)
  37 Ti     4.367267    4.779732   12.272408    ( 0.0000,  0.0000,  0.0000)
  38 Ti     9.532534    6.667326   11.860999    ( 0.0000,  0.0000,  0.0000)
  39 Ti     2.058061    6.645968   12.793159    ( 0.0000,  0.0000,  0.0000)
  40 Ti     7.235711    4.732573   12.489152    ( 0.0000,  0.0000,  0.0000)
  41 O      2.539057    4.711373   12.971691    ( 0.0000,  0.0000,  0.0000)
  42 O      7.656983    6.626489   12.646944    ( 0.0000,  0.0000,  0.0000)
  43 O      0.350591    6.684283   13.466951    ( 0.0000,  0.0000,  0.0000)
  44 O      5.679085    4.774144   13.501324    ( 0.0000,  0.0000,  0.0000)
  45 O      9.105291    4.761570   11.830126    ( 0.0000,  0.0000,  0.0000)
  46 O      3.940489    6.547469   11.785031    ( 0.0000,  0.0000,  0.0000)
  47 O      9.979105   10.517481    7.368578    ( 0.0000,  0.0000,  0.0000)
  48 O      4.830067    8.585896    7.392832    ( 0.0000,  0.0000,  0.0000)
  49 Ti     2.946753    8.591607    8.221081    ( 0.0000,  0.0000,  0.0000)
  50 Ti     8.140942   10.565202    8.215386    ( 0.0000,  0.0000,  0.0000)
  51 Ti     0.700936   10.528217    9.050547    ( 0.0000,  0.0000,  0.0000)
  52 Ti     5.910228    8.594333    8.925511    ( 0.0000,  0.0000,  0.0000)
  53 O      1.119767    8.579194    8.959972    ( 0.0000,  0.0000,  0.0000)
  54 O      6.293288   10.509086    8.948589    ( 0.0000,  0.0000,  0.0000)
  55 O      9.251487   10.459366    9.758824    ( 0.0000,  0.0000,  0.0000)
  56 O      4.077357    8.568080    9.750910    ( 0.0000,  0.0000,  0.0000)
  57 O      7.783045    8.614152    8.310648    ( 0.0000,  0.0000,  0.0000)
  58 O      2.598407   10.487951    8.367711    ( 0.0000,  0.0000,  0.0000)
  59 O      1.086615   10.563354   11.016421    ( 0.0000,  0.0000,  0.0000)
  60 O      6.222466    8.537612   11.018823    ( 0.0000,  0.0000,  0.0000)
  61 Ti     4.276102    8.600239   11.631982    ( 0.0000,  0.0000,  0.0000)
  62 Ti     9.426917   10.595938   11.669140    ( 0.0000,  0.0000,  0.0000)
  63 Ti     2.063865   10.551466   12.615663    ( 0.0000,  0.0000,  0.0000)
  64 Ti     7.232161    8.543848   12.545374    ( 0.0000,  0.0000,  0.0000)
  65 O      2.523820    8.582032   12.419517    ( 0.0000,  0.0000,  0.0000)
  66 O      7.649349   10.504228   12.415091    ( 0.0000,  0.0000,  0.0000)
  67 O      0.391202   10.524139   13.393007    ( 0.0000,  0.0000,  0.0000)
  68 O      5.309792    8.534003   13.407870    ( 0.0000,  0.0000,  0.0000)
  69 O      9.067570    8.545880   11.889680    ( 0.0000,  0.0000,  0.0000)
  70 O      4.036629   10.499690   11.803446    ( 0.0000,  0.0000,  0.0000)
  71 O      9.951565   14.316478    7.412126    ( 0.0000,  0.0000,  0.0000)
  72 O      4.790439   12.403697    7.456106    ( 0.0000,  0.0000,  0.0000)
  73 Ti     3.040360   12.417444    8.304489    ( 0.0000,  0.0000,  0.0000)
  74 Ti     8.175322   14.351580    8.303673    ( 0.0000,  0.0000,  0.0000)
  75 Ti     0.678445   14.311272    8.962431    ( 0.0000,  0.0000,  0.0000)
  76 Ti     5.873121   12.443731    9.096660    ( 0.0000,  0.0000,  0.0000)
  77 O      1.095472   12.403928    8.923866    ( 0.0000,  0.0000,  0.0000)
  78 O      6.267805   14.327702    8.933474    ( 0.0000,  0.0000,  0.0000)
  79 O      9.249243   14.380319    9.837598    ( 0.0000,  0.0000,  0.0000)
  80 O      4.055140   12.450306    9.872991    ( 0.0000,  0.0000,  0.0000)
  81 O      7.776214   12.427244    8.385197    ( 0.0000,  0.0000,  0.0000)
  82 O      2.585637   14.320047    8.360858    ( 0.0000,  0.0000,  0.0000)
  83 O      1.105421   14.321737   10.964287    ( 0.0000,  0.0000,  0.0000)
  84 O      6.261004   12.481725   11.042429    ( 0.0000,  0.0000,  0.0000)
  85 Ti     4.456304   12.409682   11.918146    ( 0.0000,  0.0000,  0.0000)
  86 Ti     9.578311   14.367807   11.902376    ( 0.0000,  0.0000,  0.0000)
  87 Ti     2.051328   14.322490   12.472527    ( 0.0000,  0.0000,  0.0000)
  88 Ti     7.225687   12.472060   12.739638    ( 0.0000,  0.0000,  0.0000)
  89 O      2.586073   12.422272   12.714428    ( 0.0000,  0.0000,  0.0000)
  90 O      7.751059   14.353807   12.722610    ( 0.0000,  0.0000,  0.0000)
  91 O      0.432587   14.311746   13.358657    ( 0.0000,  0.0000,  0.0000)
  92 O      5.542234   12.389242   13.433186    ( 0.0000,  0.0000,  0.0000)
  93 O      9.194298   12.434705   11.793963    ( 0.0000,  0.0000,  0.0000)
  94 O      4.037000   14.329466   11.951709    ( 0.0000,  0.0000,  0.0000)
  95 V      3.975904    8.528877   14.667236    ( 0.0000,  0.0000,  0.0000)
  96 O      2.992731   10.080760   14.484078    ( 0.0000,  0.0000,  0.0000)
  97 O      3.031855    7.066066   14.491788    ( 0.0000,  0.0000,  0.0000)
  98 O      4.615375    8.549561   16.122860    ( 0.0000,  0.0000,  0.0000)
  99 V      9.167760    9.904090   14.667701    ( 0.0000,  0.0000,  0.0000)
 100 O      8.218321   11.301484   14.461908    ( 0.0000,  0.0000,  0.0000)
 101 O      7.974474    8.883236   14.543622    ( 0.0000,  0.0000,  0.0000)
 102 O      9.750267    9.935754   16.128622    ( 0.0000,  0.0000,  0.0000)
 103 H      7.655290    8.741089   15.375622    ( 0.0000,  0.0000,  0.0000)
 104 H      3.014347   10.027996   15.271440    ( 0.0000,  0.0000,  0.0000)

Unit cell:
           periodic     x           y           z      points  spacing
  1. axis:    yes   10.341746    0.000000    0.000000    54     0.1915
  2. axis:    yes   -0.000000   15.289380    0.000000    80     0.1911
  3. axis:    yes    0.000000    0.000000   23.497201   125     0.1880

  Lengths:  10.341746  15.289380  23.497201
  Angles:   90.000000  90.000000  90.000000

Effective grid spacing dv^(1/3) = 0.1902

                     log10-error:    total        iterations:
           time      wfs    density  energy       fermi  poisson
iter:   1  10:53:24  -0.08   +inf  -974.064146    3             
iter:   2  10:53:55  -0.95  -0.95  -931.335510    32            
iter:   3  10:54:26  +0.46  -1.00  -855.931562    37            
iter:   4  10:54:57  -0.32  -1.31  -855.130422    35            
iter:   5  10:55:28  -0.85  -1.35  -867.291630    35            
iter:   6  10:55:59  -0.79  -1.27  -882.030952    34            
iter:   7  10:56:29  -0.29  -1.28  -869.447477    36            
iter:   8  10:57:00  -0.88  -1.55  -868.609339    3             
iter:   9  10:57:31  -1.50  -1.59  -863.954691    4             
iter:  10  10:58:02  -1.57  -1.59  -857.411424    31            
iter:  11  10:58:33  -0.97  -1.59  -853.781777    4             
iter:  12  10:59:04  -1.76  -1.65  -853.852982    4             
iter:  13  10:59:35  -1.91  -1.82  -854.221692    4             
iter:  14  11:00:06  -2.46  -2.12  -853.983461    5             
iter:  15  11:00:37  -2.56  -2.26  -853.884380    5             
iter:  16  11:01:08  -2.67  -2.32  -854.003345    4             
iter:  17  11:01:39  -2.66  -2.37  -853.868310    4             
iter:  18  11:02:10  -3.15  -2.53  -853.816719    4             
iter:  19  11:02:42  -3.26  -2.62  -853.804979    4             
iter:  20  11:03:12  -3.56  -2.65  -853.789787    3             
iter:  21  11:03:43  -3.95  -2.85  -853.798953    4             
iter:  22  11:04:13  -4.21  -2.96  -853.789457    3             
iter:  23  11:04:44  -4.36  -3.19  -853.789442    3             
iter:  24  11:05:14  -4.77  -3.30  -853.789475    2             
iter:  25  11:05:45  -4.65  -3.39  -853.789316    3             
iter:  26  11:06:16  -4.87  -3.52  -853.788527    3             
iter:  27  11:06:47  -4.84  -3.63  -853.787960    3             
iter:  28  11:07:18  -5.56  -3.74  -853.788198    3             
iter:  29  11:07:49  -5.66  -3.90  -853.788090    3             
iter:  30  11:08:20  -6.09  -4.00  -853.788390    2             
iter:  31  11:08:50  -5.92  -4.10  -853.788231    2             
iter:  32  11:09:21  -6.37  -4.29  -853.788232    2             
iter:  33  11:09:52  -6.33  -4.42  -853.788206    2             
iter:  34  11:10:23  -6.86  -4.51  -853.788188    2             
iter:  35  11:10:55  -7.19  -4.55  -853.788163    2             
iter:  36  11:11:26  -7.13  -4.61  -853.788231    2             
iter:  37  11:11:57  -7.43  -4.74  -853.788182    2             

Converged after 37 iterations.

Dipole moment: (1.173031, -1.794639, -0.777123) |e|*Ang

Energy contributions relative to reference atoms: (reference = -935653.237240)

Kinetic:       +659.694933
Potential:     -813.698741
External:        +0.000000
XC:            -705.799420
Entropy (-ST):   -0.513927
Local:           +6.272009
--------------------------
Free energy:   -854.045146
Extrapolated:  -853.788182

Fermi level: -1.25973

Showing all kpts
 Kpt  Band  Eigenvalues  Occupancy
  0   411     -2.96602    1.00000
  0   412     -1.20536    0.36733
  0   413     -1.17171    0.29313
  0   414     -1.09944    0.16758

  1   411     -2.96595    1.00000
  1   412     -1.19375    0.34078
  1   413     -1.18713    0.32608
  1   414     -1.09354    0.15951



Forces in eV/Ang:
  0 O    -1.48221   -0.07598    1.16796
  1 O    -1.09322    0.00807    1.22544
  2 Ti    2.49895   -0.05687    1.15911
  3 Ti    2.29657    0.60073    0.70961
  4 Ti   -0.05309    0.15634   -1.30551
  5 Ti   -1.63806    0.28134   -1.16590
  6 O     0.27124   -0.16909   -0.16050
  7 O     0.31546    0.00898   -0.20390
  8 O    -1.06702   -0.08709   -0.11264
  9 O    -0.72873    0.03102   -0.31642
 10 O     0.16537    0.49477   -1.08803
 11 O     0.19960   -0.20388   -0.77685
 12 O    -0.17013   -0.03472   -0.01931
 13 O     0.10442    0.00035    0.11419
 14 Ti   -0.04636   -0.00563    0.09734
 15 Ti    0.52529    0.21080    0.61535
 16 Ti    0.03633    0.21232    0.25308
 17 Ti   -0.31523    0.39704    0.04541
 18 O    -0.07307   -0.15715    0.00329
 19 O     0.07426   -0.13002    0.03255
 20 O    -0.33469    0.01013   -0.57266
 21 O     0.23023   -0.04072    0.04319
 22 O     0.08660    0.20063   -0.09119
 23 O     0.04626   -0.19282    0.11572
 24 O    -1.77248   -0.01681    1.95703
 25 O    -0.33394   -0.03046    0.10522
 26 Ti    0.31767    0.12154    0.51730
 27 Ti    3.58393    0.08021   -0.00247
 28 Ti   -0.33581    0.04902   -1.80201
 29 Ti   -0.64848    0.24072    0.25700
 30 O     0.14769   -0.16427   -0.03562
 31 O     0.00293   -0.31696   -0.08186
 32 O    -1.17965    0.04766    0.62634
 33 O     0.06804   -0.28059   -0.77784
 34 O     0.24782    0.12910   -0.82621
 35 O    -0.40337   -0.04108   -0.19476
 36 O     0.60226   -0.00879    0.85622
 37 Ti   -0.03151    0.12748   -0.33540
 38 Ti    1.81525   -0.17149    0.90500
 39 Ti   -0.63843   -0.00561    0.48964
 40 Ti   -1.07200    0.01208   -1.30368
 41 O     0.03974   -0.14430   -0.11156
 42 O    -0.01803    0.04842    0.11545
 43 O    -0.58199    0.11598   -1.00370
 44 O     0.17925   -0.01297    0.38177
 45 O     0.14486   -0.14874    0.20843
 46 O     0.11817    0.01356    0.09714
 47 O    -1.57074    0.08506    1.95805
 48 O    -1.08092   -0.04139    1.18801
 49 Ti    2.56876   -0.02751    1.08273
 50 Ti    3.28719   -0.38598    0.26819
 51 Ti   -0.41825   -0.08133   -2.35346
 52 Ti   -1.31050    0.05288   -1.32981
 53 O     0.26681    0.07236    0.03256
 54 O     0.10924    0.15312    0.02755
 55 O    -1.23242    0.04207    0.69650
 56 O    -0.94176    0.01806   -0.13817
 57 O     0.18764    0.03497   -1.00074
 58 O     0.25810   -0.00794   -0.89973
 59 O    -0.13296    0.00123    0.06249
 60 O     0.08887   -0.10784    0.35659
 61 Ti   -0.09663   -0.22757    0.07898
 62 Ti    0.98803    0.27241    0.23181
 63 Ti   -0.48519   -0.03553   -0.80016
 64 Ti   -0.89400    0.19864   -1.18307
 65 O     0.09844    0.24108   -0.13889
 66 O    -0.17334   -0.89115   -1.28654
 67 O    -1.91123   -1.04994    0.51170
 68 O     0.12116   -0.01234    0.07504
 69 O     0.16895    0.29640    0.24233
 70 O    -0.19777    0.03629    0.31862
 71 O    -1.27379    0.04726    1.29407
 72 O    -1.32722    0.07102    1.59037
 73 Ti    2.70502   -0.09625    0.89284
 74 Ti    2.98476   -0.90513    0.83266
 75 Ti   -0.80827   -0.16802   -1.51909
 76 Ti   -1.11523   -0.50269   -1.59089
 77 O     0.13708    0.22075   -0.14125
 78 O     0.21525    0.03339   -0.16852
 79 O    -0.85642    0.01052   -0.04712
 80 O    -0.61463   -0.04205   -0.13438
 81 O     0.06166    0.18222   -0.72607
 82 O     0.22516    0.29995   -0.95075
 83 O     0.03531    0.14166   -0.03453
 84 O     0.40543    0.04214    0.95711
 85 Ti   -0.13955    0.08192   -0.09099
 86 Ti    0.82742   -0.47634    0.34448
 87 Ti   -0.10367   -0.13875    0.20356
 88 Ti   -0.23837   -1.18077   -0.06510
 89 O    -0.09443   -0.00431   -0.00019
 90 O    -0.23743   -0.37365    0.37225
 91 O    -0.15200    0.09902   -0.44354
 92 O     0.52248    0.09720   -0.01840
 93 O    -0.24436    0.04783    0.42992
 94 O    -0.06334    0.30761    0.06179
 95 V     0.87785   -2.78163   -1.46701
 96 O    -0.08236    0.71806  -17.04478
 97 O     0.35814    0.70143    0.03683
 98 O     0.02952    0.28875    0.36431
 99 V     8.23637   10.18709   -1.13242
100 O     0.83051    1.31725    0.86679
101 O    -5.64600   -7.02698   -4.26413
102 O     0.34435   -0.45206    1.32328
103 H    -2.47986   -1.51910    4.32656
104 H    -0.77335    1.06348   18.51039

System changes: positions 

Initializing position-dependent things.

Density initialized from wave functions
          .------------------------.  
         /|                        |  
        / |                        |  
       /  |                        |  
      /   |                        |  
     /    |                        |  
    /     |                        |  
   /      |                        |  
  /       |                        |  
 *        |                        |  
 |        |                        |  
 |        |                        |  
 |        |                   O    |  
 |        O   H  O          O      |  
 |        |   Oi      O  H  OV     |  
 |      O |    OV  O     OTi     Ti|  
 |        | Oi     Oi     O    O   |  
 |    O   |      O     OTi    TiO  |  
 |        TiO     O    O    O      |  
 |        OTi   TiO  O TiO  Tii    |  
 |  O  O  |O  TiTi   Ti    O  O  O |  
 |      Tii  O OO   OOO   O        |  
 |      OO| O     OTii    Tii      |  
 |   O Ti | Tii     O   OO     O   |  
 |    O   |O     OOTi    Oi        |  
 |  Ti    |Oi  O  O    O     O     |  
 |  O    O|     Ti    Ti           |  
 |       Ti         O      O       |  
 |        |  O                     |  
 |        .------------------------.  
 |       /                        /   
 |      /                        /    
 |     /                        /     
 |    /                        /      
 |   /                        /       
 |  /                        /        
 | /                        /         
 |/                        /          
 *------------------------*           

Positions:
   0 O      9.983327    2.826717    7.405169    ( 0.0000,  0.0000,  0.0000)
   1 O      4.777925    0.950160    7.421038    ( 0.0000,  0.0000,  0.0000)
   2 Ti     2.992771    0.951953    8.316961    ( 0.0000,  0.0000,  0.0000)
   3 Ti     8.214264    2.770866    8.280353    ( 0.0000,  0.0000,  0.0000)
   4 Ti     0.649548    2.836298    8.986825    ( 0.0000,  0.0000,  0.0000)
   5 Ti     5.867036    0.914346    8.949845    ( 0.0000,  0.0000,  0.0000)
   6 O      1.096680    0.957856    8.927281    ( 0.0000,  0.0000,  0.0000)
   7 O      6.330111    2.833354    8.943215    ( 0.0000,  0.0000,  0.0000)
   8 O      9.246073    2.818125    9.835439    ( 0.0000,  0.0000,  0.0000)
   9 O      4.072344    0.939541    9.847174    ( 0.0000,  0.0000,  0.0000)
  10 O      7.774441    0.909061    8.335563    ( 0.0000,  0.0000,  0.0000)
  11 O      2.582685    2.890105    8.382110    ( 0.0000,  0.0000,  0.0000)
  12 O      1.092733    2.884604   10.989365    ( 0.0000,  0.0000,  0.0000)
  13 O      6.280091    0.915550   10.949270    ( 0.0000,  0.0000,  0.0000)
  14 Ti     4.387745    0.968280   11.902686    ( 0.0000,  0.0000,  0.0000)
  15 Ti     9.574223    2.829416   11.904679    ( 0.0000,  0.0000,  0.0000)
  16 Ti     2.017286    2.840627   12.514998    ( 0.0000,  0.0000,  0.0000)
  17 Ti     7.187326    0.927820   12.473319    ( 0.0000,  0.0000,  0.0000)
  18 O      2.577622    0.969863   12.711364    ( 0.0000,  0.0000,  0.0000)
  19 O      7.693974    2.863484   12.644122    ( 0.0000,  0.0000,  0.0000)
  20 O      0.384438    2.829612   13.382263    ( 0.0000,  0.0000,  0.0000)
  21 O      5.555840    1.021345   13.333288    ( 0.0000,  0.0000,  0.0000)
  22 O      9.171946    0.949605   11.953544    ( 0.0000,  0.0000,  0.0000)
  23 O      3.958387    2.932734   11.830843    ( 0.0000,  0.0000,  0.0000)
  24 O      9.991155    6.702438    7.394704    ( 0.0000,  0.0000,  0.0000)
  25 O      4.618599    4.771370    7.946370    ( 0.0000,  0.0000,  0.0000)
  26 Ti     2.775043    4.775937    7.983327    ( 0.0000,  0.0000,  0.0000)
  27 Ti     8.215116    6.733658    8.263758    ( 0.0000,  0.0000,  0.0000)
  28 Ti     0.698994    6.682604    9.155328    ( 0.0000,  0.0000,  0.0000)
  29 Ti     6.091392    4.752901    9.031818    ( 0.0000,  0.0000,  0.0000)
  30 O      1.061195    4.769445    8.936857    ( 0.0000,  0.0000,  0.0000)
  31 O      6.347502    6.689180    8.953041    ( 0.0000,  0.0000,  0.0000)
  32 O      9.247434    6.689998    9.820961    ( 0.0000,  0.0000,  0.0000)
  33 O      7.814993    4.761002    8.270793    ( 0.0000,  0.0000,  0.0000)
  34 O      2.586823    6.648076    8.393045    ( 0.0000,  0.0000,  0.0000)
  35 O      1.071590    6.605176   11.084838    ( 0.0000,  0.0000,  0.0000)
  36 O      5.971198    4.739103   10.949397    ( 0.0000,  0.0000,  0.0000)
  37 Ti     4.367207    4.779983   12.271948    ( 0.0000,  0.0000,  0.0000)
  38 Ti     9.534559    6.667104   11.861892    ( 0.0000,  0.0000,  0.0000)
  39 Ti     2.057266    6.645961   12.793526    ( 0.0000,  0.0000,  0.0000)
  40 Ti     7.234457    4.732529   12.487815    ( 0.0000,  0.0000,  0.0000)
  41 O      2.539085    4.711205   12.971520    ( 0.0000,  0.0000,  0.0000)
  42 O      7.656920    6.626559   12.646844    ( 0.0000,  0.0000,  0.0000)
  43 O      0.349908    6.684407   13.465635    ( 0.0000,  0.0000,  0.0000)
  44 O      5.679281    4.774192   13.501787    ( 0.0000,  0.0000,  0.0000)
  45 O      9.105406    4.761372   11.830272    ( 0.0000,  0.0000,  0.0000)
  46 O      3.940595    6.547490   11.785095    ( 0.0000,  0.0000,  0.0000)
  47 O      9.979105   10.517481    7.368578    ( 0.0000,  0.0000,  0.0000)
  48 O      4.830067    8.585896    7.392832    ( 0.0000,  0.0000,  0.0000)
  49 Ti     2.946753    8.591607    8.221081    ( 0.0000,  0.0000,  0.0000)
  50 Ti     8.140942   10.565202    8.215386    ( 0.0000,  0.0000,  0.0000)
  51 Ti     0.700936   10.528217    9.050547    ( 0.0000,  0.0000,  0.0000)
  52 Ti     5.910228    8.594333    8.925511    ( 0.0000,  0.0000,  0.0000)
  53 O      1.119767    8.579194    8.959972    ( 0.0000,  0.0000,  0.0000)
  54 O      6.293288   10.509086    8.948589    ( 0.0000,  0.0000,  0.0000)
  55 O      9.251487   10.459366    9.758824    ( 0.0000,  0.0000,  0.0000)
  56 O      4.077357    8.568080    9.750910    ( 0.0000,  0.0000,  0.0000)
  57 O      7.783045    8.614152    8.310648    ( 0.0000,  0.0000,  0.0000)
  58 O      2.598407   10.487951    8.367711    ( 0.0000,  0.0000,  0.0000)
  59 O      1.086536   10.563380   11.016386    ( 0.0000,  0.0000,  0.0000)
  60 O      6.222606    8.537607   11.019158    ( 0.0000,  0.0000,  0.0000)
  61 Ti     4.275959    8.600240   11.632021    ( 0.0000,  0.0000,  0.0000)
  62 Ti     9.428128   10.596303   11.669459    ( 0.0000,  0.0000,  0.0000)
  63 Ti     2.063107   10.551417   12.614790    ( 0.0000,  0.0000,  0.0000)
  64 Ti     7.230962    8.544141   12.543829    ( 0.0000,  0.0000,  0.0000)
  65 O      2.523951    8.582357   12.419266    ( 0.0000,  0.0000,  0.0000)
  66 O      7.649104   10.503183   12.413507    ( 0.0000,  0.0000,  0.0000)
  67 O      0.389345   10.522889   13.393546    ( 0.0000,  0.0000,  0.0000)
  68 O      5.309995    8.534004   13.407906    ( 0.0000,  0.0000,  0.0000)
  69 O      9.067738    8.546295   11.889995    ( 0.0000,  0.0000,  0.0000)
  70 O      4.036567   10.499706   11.803725    ( 0.0000,  0.0000,  0.0000)
  71 O      9.951565   14.316478    7.412126    ( 0.0000,  0.0000,  0.0000)
  72 O      4.790439   12.403697    7.456106    ( 0.0000,  0.0000,  0.0000)
  73 Ti     3.040360   12.417444    8.304489    ( 0.0000,  0.0000,  0.0000)
  74 Ti     8.175322   14.351580    8.303673    ( 0.0000,  0.0000,  0.0000)
  75 Ti     0.678445   14.311272    8.962431    ( 0.0000,  0.0000,  0.0000)
  76 Ti     5.873121   12.443731    9.096660    ( 0.0000,  0.0000,  0.0000)
  77 O      1.095472   12.403928    8.923866    ( 0.0000,  0.0000,  0.0000)
  78 O      6.267805   14.327702    8.933474    ( 0.0000,  0.0000,  0.0000)
  79 O      9.249243   14.380319    9.837598    ( 0.0000,  0.0000,  0.0000)
  80 O      4.055140   12.450306    9.872991    ( 0.0000,  0.0000,  0.0000)
  81 O      7.776214   12.427244    8.385197    ( 0.0000,  0.0000,  0.0000)
  82 O      2.585637   14.320047    8.360858    ( 0.0000,  0.0000,  0.0000)
  83 O      1.105447   14.321902   10.964191    ( 0.0000,  0.0000,  0.0000)
  84 O      6.261548   12.481829   11.043474    ( 0.0000,  0.0000,  0.0000)
  85 Ti     4.456040   12.409765   11.917963    ( 0.0000,  0.0000,  0.0000)
  86 Ti     9.579332   14.367287   11.902731    ( 0.0000,  0.0000,  0.0000)
  87 Ti     2.051217   14.322336   12.472707    ( 0.0000,  0.0000,  0.0000)
  88 Ti     7.225316   12.470650   12.739245    ( 0.0000,  0.0000,  0.0000)
  89 O      2.586072   12.422277   12.714304    ( 0.0000,  0.0000,  0.0000)
  90 O      7.750785   14.353355   12.722988    ( 0.0000,  0.0000,  0.0000)
  91 O      0.432444   14.311873   13.358076    ( 0.0000,  0.0000,  0.0000)
  92 O      5.542899   12.389408   13.433038    ( 0.0000,  0.0000,  0.0000)
  93 O      9.194029   12.434773   11.794472    ( 0.0000,  0.0000,  0.0000)
  94 O      4.036938   14.329859   11.951661    ( 0.0000,  0.0000,  0.0000)
  95 V      3.977029    8.525459   14.665338    ( 0.0000,  0.0000,  0.0000)
  96 O      2.992844   10.081657   14.462777    ( 0.0000,  0.0000,  0.0000)
  97 O      3.032274    7.066956   14.491770    ( 0.0000,  0.0000,  0.0000)
  98 O      4.615396    8.549907   16.123274    ( 0.0000,  0.0000,  0.0000)
  99 V      9.178242    9.914608   14.666221    ( 0.0000,  0.0000,  0.0000)
 100 O      8.221615   11.301362   14.462928    ( 0.0000,  0.0000,  0.0000)
 101 O      7.967340    8.874006   14.538244    ( 0.0000,  0.0000,  0.0000)
 102 O      9.750684    9.933163   16.130216    ( 0.0000,  0.0000,  0.0000)
 103 H      7.651671    8.739888   15.381104    ( 0.0000,  0.0000,  0.0000)
 104 H      3.013563   10.026986   15.294475    ( 0.0000,  0.0000,  0.0000)

Unit cell:
           periodic     x           y           z      points  spacing
  1. axis:    yes   10.341746    0.000000    0.000000    54     0.1915
  2. axis:    yes   -0.000000   15.289380    0.000000    80     0.1911
  3. axis:    yes    0.000000    0.000000   23.497201   125     0.1880

  Lengths:  10.341746  15.289380  23.497201
  Angles:   90.000000  90.000000  90.000000

Effective grid spacing dv^(1/3) = 0.1902

                     log10-error:    total        iterations:
           time      wfs    density  energy       fermi  poisson
iter:   1  11:14:11  -2.69   +inf  -854.897502    4             
iter:   2  11:14:43  -3.62  -2.98  -854.875755    3             
iter:   3  11:15:14  -4.25  -3.08  -854.849593    3             
iter:   4  11:15:45  -3.85  -3.25  -854.826212    3             
iter:   5  11:16:16  -3.67  -3.41  -854.818898    4             
iter:   6  11:16:47  -4.26  -3.50  -854.814911    3             
iter:   7  11:17:17  -4.64  -3.70  -854.815199    3             
iter:   8  11:17:48  -5.20  -3.79  -854.815331    3             
iter:   9  11:18:19  -5.19  -3.92  -854.814638    3             
iter:  10  11:18:50  -5.54  -4.12  -854.814507    3             
iter:  11  11:19:20  -6.22  -4.21  -854.814974    2             
iter:  12  11:19:51  -6.86  -4.31  -854.814793    2             
iter:  13  11:20:22  -6.47  -4.37  -854.814935    3             
iter:  14  11:20:52  -6.68  -4.50  -854.814949    2             
iter:  15  11:21:23  -7.17  -4.58  -854.814900    2             
iter:  16  11:21:54  -6.84  -4.66  -854.814827    2             
iter:  17  11:22:24  -7.51  -4.90  -854.814868    2             

Converged after 17 iterations.

Dipole moment: (1.175501, -1.780098, -0.768527) |e|*Ang

Energy contributions relative to reference atoms: (reference = -935653.237240)

Kinetic:       +653.800831
Potential:     -809.841290
External:        +0.000000
XC:            -704.784742
Entropy (-ST):   -0.513433
Local:           +6.267049
--------------------------
Free energy:   -855.071585
Extrapolated:  -854.814868

Fermi level: -1.25652

Showing all kpts
 Kpt  Band  Eigenvalues  Occupancy
  0   411     -2.99961    1.00000
  0   412     -1.20246    0.36803
  0   413     -1.16888    0.29391
  0   414     -1.09606    0.16733

  1   411     -2.99953    1.00000
  1   412     -1.19079    0.34135
  1   413     -1.18427    0.32683
  1   414     -1.09022    0.15935



Forces in eV/Ang:
  0 O    -1.48254   -0.07589    1.16550
  1 O    -1.09225    0.00816    1.22340
  2 Ti    2.49702   -0.05543    1.15787
  3 Ti    2.30238    0.59993    0.71295
  4 Ti   -0.05715    0.15686   -1.30572
  5 Ti   -1.63743    0.28108   -1.16449
  6 O     0.27121   -0.17067   -0.16024
  7 O     0.31259    0.01368   -0.20156
  8 O    -1.06801   -0.08658   -0.11791
  9 O    -0.72776    0.03108   -0.31385
 10 O     0.16456    0.49517   -1.08878
 11 O     0.20116   -0.20320   -0.77672
 12 O    -0.15929   -0.03312   -0.00980
 13 O     0.09660    0.00130    0.10408
 14 Ti   -0.04259   -0.00576    0.09397
 15 Ti    0.50072    0.20670    0.59718
 16 Ti    0.03877    0.20221    0.23710
 17 Ti   -0.28913    0.38367    0.04740
 18 O    -0.07759   -0.15279    0.00691
 19 O     0.07087   -0.12458    0.03254
 20 O    -0.32272    0.01117   -0.54689
 21 O     0.21811   -0.03910    0.04886
 22 O     0.08883    0.18816   -0.08963
 23 O     0.04442   -0.18690    0.11492
 24 O    -1.77107   -0.01682    1.95397
 25 O    -0.32882   -0.03048    0.10601
 26 Ti    0.31385    0.12106    0.51678
 27 Ti    3.59171    0.08049    0.00325
 28 Ti   -0.34597    0.04753   -1.81387
 29 Ti   -0.64655    0.24016    0.25145
 30 O     0.14855   -0.16372   -0.03601
 31 O    -0.00092   -0.32025   -0.07906
 32 O    -1.17876    0.04676    0.61864
 33 O     0.06392   -0.28087   -0.77799
 34 O     0.24953    0.12909   -0.82612
 35 O    -0.38397   -0.04372   -0.17798
 36 O     0.59172   -0.00999    0.83485
 37 Ti   -0.01862    0.12211   -0.31838
 38 Ti    1.74839   -0.15339    0.89734
 39 Ti   -0.62396   -0.00356    0.45569
 40 Ti   -1.03990    0.03530   -1.28506
 41 O     0.03307   -0.13361   -0.10631
 42 O    -0.01659    0.02228    0.08821
 43 O    -0.56257    0.11063   -0.97899
 44 O     0.16204   -0.01423    0.36767
 45 O     0.14642   -0.14663    0.20808
 46 O     0.11388    0.01202    0.09839
 47 O    -1.56840    0.08486    1.95657
 48 O    -1.07887   -0.04131    1.18707
 49 Ti    2.56775   -0.02979    1.08056
 50 Ti    3.28868   -0.38695    0.26877
 51 Ti   -0.42453   -0.08361   -2.36847
 52 Ti   -1.31183    0.05286   -1.33122
 53 O     0.26621    0.07501    0.03437
 54 O     0.10725    0.15458    0.02997
 55 O    -1.22972    0.04478    0.70217
 56 O    -0.94126    0.01779   -0.13854
 57 O     0.18637    0.03488   -1.00011
 58 O     0.25845   -0.00620   -0.89888
 59 O    -0.14600   -0.00085    0.06057
 60 O     0.05646   -0.10554    0.31021
 61 Ti   -0.10391   -0.22388    0.07649
 62 Ti    0.94358    0.24403    0.20055
 63 Ti   -0.42004   -0.02541   -0.83593
 64 Ti   -0.80146    0.17951   -1.04938
 65 O     0.08379    0.20343   -0.17310
 66 O    -0.16524   -0.83906   -1.26414
 67 O    -1.92607   -1.02416    0.53481
 68 O     0.10275   -0.02967    0.04864
 69 O     0.18061    0.28520    0.22119
 70 O    -0.20109    0.04120    0.30595
 71 O    -1.27276    0.04709    1.29152
 72 O    -1.32368    0.07093    1.59032
 73 Ti    2.70074   -0.09565    0.88822
 74 Ti    2.98705   -0.90413    0.83390
 75 Ti   -0.81216   -0.16438   -1.52253
 76 Ti   -1.11342   -0.50168   -1.59264
 77 O     0.13712    0.21875   -0.13894
 78 O     0.21316    0.03044   -0.16665
 79 O    -0.85482    0.00842   -0.04734
 80 O    -0.60958   -0.04156   -0.12692
 81 O     0.06006    0.18246   -0.72578
 82 O     0.22630    0.29805   -0.95096
 83 O     0.03932    0.13900   -0.02929
 84 O     0.39721    0.04170    0.93642
 85 Ti   -0.13433    0.08085   -0.09087
 86 Ti    0.78561   -0.45131    0.33230
 87 Ti   -0.08707   -0.13095    0.19055
 88 Ti   -0.23995   -1.14405   -0.10340
 89 O    -0.10348   -0.00025   -0.00456
 90 O    -0.23074   -0.37409    0.36960
 91 O    -0.14802    0.09420   -0.41859
 92 O     0.51145    0.09271   -0.00810
 93 O    -0.23358    0.04117    0.43158
 94 O    -0.06428    0.29773    0.06239
 95 V     0.85972   -2.60908   -1.41401
 96 O     0.16560    0.29361  -10.49222
 97 O     0.33193    0.63605    0.03379
 98 O     0.00551    0.28464    0.32214
 99 V     6.97449    8.98945   -1.23512
100 O     0.81900    1.37179    0.87392
101 O    -4.69530   -6.14310   -3.70247
102 O     0.38267   -0.39460    1.34808
103 H    -2.21426   -1.35467    3.78135
104 H    -0.91911    1.38896   12.10657

System changes: positions 

Initializing position-dependent things.

Density initialized from wave functions
          .------------------------.  
         /|                        |  
        / |                        |  
       /  |                        |  
      /   |                        |  
     /    |                        |  
    /     |                        |  
   /      |                        |  
  /       |                        |  
 *        |                        |  
 |        |                        |  
 |        |                        |  
 |        |                   O    |  
 |        O   H  O          O      |  
 |        |   Oi      O  H  OV     |  
 |      O |    OV  O     OTi     Ti|  
 |        | Oi     Oi          O   |  
 |    O   |      O     OTiO   TiO  |  
 |        TiO     O    O    O      |  
 |        OTi   TiO  O TiO  Tii    |  
 |  O  O  |O  TiTi   Ti    O  O  O |  
 |      Tii  O OO   OOO   O        |  
 |      OO| O     OTii    Tii      |  
 |   O Ti | Tii     O   OO     O   |  
 |    O   |O     OOTi    Oi        |  
 |  Ti    |Oi  O  O    O     O     |  
 |  O    O|     Ti    Ti           |  
 |       Ti         O      O       |  
 |        |  O                     |  
 |        .------------------------.  
 |       /                        /   
 |      /                        /    
 |     /                        /     
 |    /                        /      
 |   /                        /       
 |  /                        /        
 | /                        /         
 |/                        /          
 *------------------------*           

Positions:
   0 O      9.983327    2.826717    7.405169    ( 0.0000,  0.0000,  0.0000)
   1 O      4.777925    0.950160    7.421038    ( 0.0000,  0.0000,  0.0000)
   2 Ti     2.992771    0.951953    8.316961    ( 0.0000,  0.0000,  0.0000)
   3 Ti     8.214264    2.770866    8.280353    ( 0.0000,  0.0000,  0.0000)
   4 Ti     0.649548    2.836298    8.986825    ( 0.0000,  0.0000,  0.0000)
   5 Ti     5.867036    0.914346    8.949845    ( 0.0000,  0.0000,  0.0000)
   6 O      1.096680    0.957856    8.927281    ( 0.0000,  0.0000,  0.0000)
   7 O      6.330111    2.833354    8.943215    ( 0.0000,  0.0000,  0.0000)
   8 O      9.246073    2.818125    9.835439    ( 0.0000,  0.0000,  0.0000)
   9 O      4.072344    0.939541    9.847174    ( 0.0000,  0.0000,  0.0000)
  10 O      7.774441    0.909061    8.335563    ( 0.0000,  0.0000,  0.0000)
  11 O      2.582685    2.890105    8.382110    ( 0.0000,  0.0000,  0.0000)
  12 O      1.092133    2.884570   10.989186    ( 0.0000,  0.0000,  0.0000)
  13 O      6.280461    0.915578   10.949484    ( 0.0000,  0.0000,  0.0000)
  14 Ti     4.387501    0.968402   11.902824    ( 0.0000,  0.0000,  0.0000)
  15 Ti     9.576062    2.830194   11.906708    ( 0.0000,  0.0000,  0.0000)
  16 Ti     2.017423    2.841463   12.515695    ( 0.0000,  0.0000,  0.0000)
  17 Ti     7.186202    0.929258   12.473433    ( 0.0000,  0.0000,  0.0000)
  18 O      2.577281    0.969294   12.711174    ( 0.0000,  0.0000,  0.0000)
  19 O      7.694256    2.862927   12.644301    ( 0.0000,  0.0000,  0.0000)
  20 O      0.383169    2.829578   13.380023    ( 0.0000,  0.0000,  0.0000)
  21 O      5.556574    1.021304   13.333364    ( 0.0000,  0.0000,  0.0000)
  22 O      9.172262    0.950282   11.952989    ( 0.0000,  0.0000,  0.0000)
  23 O      3.958458    2.932104   11.831172    ( 0.0000,  0.0000,  0.0000)
  24 O      9.991155    6.702438    7.394704    ( 0.0000,  0.0000,  0.0000)
  25 O      4.618599    4.771370    7.946370    ( 0.0000,  0.0000,  0.0000)
  26 Ti     2.775043    4.775937    7.983327    ( 0.0000,  0.0000,  0.0000)
  27 Ti     8.215116    6.733658    8.263758    ( 0.0000,  0.0000,  0.0000)
  28 Ti     0.698994    6.682604    9.155328    ( 0.0000,  0.0000,  0.0000)
  29 Ti     6.091392    4.752901    9.031818    ( 0.0000,  0.0000,  0.0000)
  30 O      1.061195    4.769445    8.936857    ( 0.0000,  0.0000,  0.0000)
  31 O      6.347502    6.689180    8.953041    ( 0.0000,  0.0000,  0.0000)
  32 O      9.247434    6.689998    9.820961    ( 0.0000,  0.0000,  0.0000)
  33 O      7.814993    4.761002    8.270793    ( 0.0000,  0.0000,  0.0000)
  34 O      2.586823    6.648076    8.393045    ( 0.0000,  0.0000,  0.0000)
  35 O      1.070107    6.605000   11.083943    ( 0.0000,  0.0000,  0.0000)
  36 O      5.973297    4.738979   10.952565    ( 0.0000,  0.0000,  0.0000)
  37 Ti     4.367167    4.780700   12.270615    ( 0.0000,  0.0000,  0.0000)
  38 Ti     9.540832    6.666561   11.864999    ( 0.0000,  0.0000,  0.0000)
  39 Ti     2.054745    6.645958   12.794575    ( 0.0000,  0.0000,  0.0000)
  40 Ti     7.230519    4.732690   12.483288    ( 0.0000,  0.0000,  0.0000)
  41 O      2.539121    4.710748   12.971024    ( 0.0000,  0.0000,  0.0000)
  42 O      7.656754    6.626493   12.646391    ( 0.0000,  0.0000,  0.0000)
  43 O      0.347782    6.684787   13.461518    ( 0.0000,  0.0000,  0.0000)
  44 O      5.679770    4.774292   13.503206    ( 0.0000,  0.0000,  0.0000)
  45 O      9.105861    4.760738   11.830850    ( 0.0000,  0.0000,  0.0000)
  46 O      3.940937    6.547540   11.785371    ( 0.0000,  0.0000,  0.0000)
  47 O      9.979105   10.517481    7.368578    ( 0.0000,  0.0000,  0.0000)
  48 O      4.830067    8.585896    7.392832    ( 0.0000,  0.0000,  0.0000)
  49 Ti     2.946753    8.591607    8.221081    ( 0.0000,  0.0000,  0.0000)
  50 Ti     8.140942   10.565202    8.215386    ( 0.0000,  0.0000,  0.0000)
  51 Ti     0.700936   10.528217    9.050547    ( 0.0000,  0.0000,  0.0000)
  52 Ti     5.910228    8.594333    8.925511    ( 0.0000,  0.0000,  0.0000)
  53 O      1.119767    8.579194    8.959972    ( 0.0000,  0.0000,  0.0000)
  54 O      6.293288   10.509086    8.948589    ( 0.0000,  0.0000,  0.0000)
  55 O      9.251487   10.459366    9.758824    ( 0.0000,  0.0000,  0.0000)
  56 O      4.077357    8.568080    9.750910    ( 0.0000,  0.0000,  0.0000)
  57 O      7.783045    8.614152    8.310648    ( 0.0000,  0.0000,  0.0000)
  58 O      2.598407   10.487951    8.367711    ( 0.0000,  0.0000,  0.0000)
  59 O      1.086049   10.563425   11.016339    ( 0.0000,  0.0000,  0.0000)
  60 O      6.222691    8.537520   11.019848    ( 0.0000,  0.0000,  0.0000)
  61 Ti     4.275412    8.600065   11.632171    ( 0.0000,  0.0000,  0.0000)
  62 Ti     9.431736   10.597197   11.670155    ( 0.0000,  0.0000,  0.0000)
  63 Ti     2.061424   10.551370   12.611341    ( 0.0000,  0.0000,  0.0000)
  64 Ti     7.228006    8.544878   12.540163    ( 0.0000,  0.0000,  0.0000)
  65 O      2.524221    8.583011   12.418092    ( 0.0000,  0.0000,  0.0000)
  66 O      7.648392   10.500208   12.408429    ( 0.0000,  0.0000,  0.0000)
  67 O      0.382536   10.518905   13.395663    ( 0.0000,  0.0000,  0.0000)
  68 O      5.310438    8.533805   13.407767    ( 0.0000,  0.0000,  0.0000)
  69 O      9.068471    8.547541   11.890814    ( 0.0000,  0.0000,  0.0000)
  70 O      4.036178   10.499841   11.804618    ( 0.0000,  0.0000,  0.0000)
  71 O      9.951565   14.316478    7.412126    ( 0.0000,  0.0000,  0.0000)
  72 O      4.790439   12.403697    7.456106    ( 0.0000,  0.0000,  0.0000)
  73 Ti     3.040360   12.417444    8.304489    ( 0.0000,  0.0000,  0.0000)
  74 Ti     8.175322   14.351580    8.303673    ( 0.0000,  0.0000,  0.0000)
  75 Ti     0.678445   14.311272    8.962431    ( 0.0000,  0.0000,  0.0000)
  76 Ti     5.873121   12.443731    9.096660    ( 0.0000,  0.0000,  0.0000)
  77 O      1.095472   12.403928    8.923866    ( 0.0000,  0.0000,  0.0000)
  78 O      6.267805   14.327702    8.933474    ( 0.0000,  0.0000,  0.0000)
  79 O      9.249243   14.380319    9.837598    ( 0.0000,  0.0000,  0.0000)
  80 O      4.055140   12.450306    9.872991    ( 0.0000,  0.0000,  0.0000)
  81 O      7.776214   12.427244    8.385197    ( 0.0000,  0.0000,  0.0000)
  82 O      2.585637   14.320047    8.360858    ( 0.0000,  0.0000,  0.0000)
  83 O      1.105593   14.322437   10.963965    ( 0.0000,  0.0000,  0.0000)
  84 O      6.263265   12.482137   11.046888    ( 0.0000,  0.0000,  0.0000)
  85 Ti     4.455276   12.410051   11.917398    ( 0.0000,  0.0000,  0.0000)
  86 Ti     9.582317   14.365755   11.903850    ( 0.0000,  0.0000,  0.0000)
  87 Ti     2.051018   14.321891   12.473226    ( 0.0000,  0.0000,  0.0000)
  88 Ti     7.224091   12.466263   12.737690    ( 0.0000,  0.0000,  0.0000)
  89 O      2.585875   12.422333   12.713933    ( 0.0000,  0.0000,  0.0000)
  90 O      7.749920   14.351814   12.724302    ( 0.0000,  0.0000,  0.0000)
  91 O      0.431968   14.312246   13.356418    ( 0.0000,  0.0000,  0.0000)
  92 O      5.545012   12.389883   13.432754    ( 0.0000,  0.0000,  0.0000)
  93 O      9.193214   12.434920   11.796234    ( 0.0000,  0.0000,  0.0000)
  94 O      4.036704   14.331067   11.951603    ( 0.0000,  0.0000,  0.0000)
  95 V      3.980672    8.515766   14.659540    ( 0.0000,  0.0000,  0.0000)
  96 O      2.995852   10.079885   14.464924    ( 0.0000,  0.0000,  0.0000)
  97 O      3.033417    7.069221   14.491725    ( 0.0000,  0.0000,  0.0000)
  98 O      4.615209    8.551043   16.124232    ( 0.0000,  0.0000,  0.0000)
  99 V      9.199590    9.938305   14.660132    ( 0.0000,  0.0000,  0.0000)
 100 O      8.230939   11.302869   14.466507    ( 0.0000,  0.0000,  0.0000)
 101 O      7.953759    8.853087   14.526377    ( 0.0000,  0.0000,  0.0000)
 102 O      9.752540    9.926553   16.135955    ( 0.0000,  0.0000,  0.0000)
 103 H      7.642823    8.737164   15.393476    ( 0.0000,  0.0000,  0.0000)
 104 H      3.009055   10.029055   15.299970    ( 0.0000,  0.0000,  0.0000)

Unit cell:
           periodic     x           y           z      points  spacing
  1. axis:    yes   10.341746    0.000000    0.000000    54     0.1915
  2. axis:    yes   -0.000000   15.289380    0.000000    80     0.1911
  3. axis:    yes    0.000000    0.000000   23.497201   125     0.1880

  Lengths:  10.341746  15.289380  23.497201
  Angles:   90.000000  90.000000  90.000000

Effective grid spacing dv^(1/3) = 0.1902

                     log10-error:    total        iterations:
           time      wfs    density  energy       fermi  poisson
iter:   1  11:26:38  -2.33   +inf  -855.679012    4             
iter:   2  11:27:09  -3.32  -3.09  -855.662438    3             
iter:   3  11:27:40  -3.10  -3.13  -855.611949    4             
iter:   4  11:28:11  -4.21  -3.30  -855.614115    3             
iter:   5  11:28:42  -4.73  -3.35  -855.608991    3             
iter:   6  11:29:12  -4.04  -3.44  -855.602463    3             
iter:   7  11:29:42  -4.46  -3.61  -855.604092    3             
iter:   8  11:30:13  -4.23  -3.65  -855.603156    3             
iter:   9  11:30:44  -5.08  -3.78  -855.602170    3             
iter:  10  11:31:15  -4.72  -3.92  -855.601784    3             
iter:  11  11:31:46  -5.25  -3.97  -855.601404    3             
iter:  12  11:32:17  -6.46  -4.25  -855.601606    2             
iter:  13  11:32:49  -6.32  -4.30  -855.601662    2             
iter:  14  11:33:20  -6.64  -4.34  -855.601893    2             
iter:  15  11:33:50  -6.72  -4.49  -855.601654    2             
iter:  16  11:34:21  -6.66  -4.61  -855.601656    2             
iter:  17  11:34:52  -7.13  -4.72  -855.601569    2             
iter:  18  11:35:23  -7.29  -4.88  -855.601590    2             
iter:  19  11:35:54  -7.72  -5.00  -855.601654    2             

Converged after 19 iterations.

Dipole moment: (1.108480, -1.763543, -0.798569) |e|*Ang

Energy contributions relative to reference atoms: (reference = -935653.237240)

Kinetic:       +648.477976
Potential:     -806.118840
External:        +0.000000
XC:            -704.015399
Entropy (-ST):   -0.510791
Local:           +6.310004
--------------------------
Free energy:   -855.857050
Extrapolated:  -855.601654

Fermi level: -1.26091

Showing all kpts
 Kpt  Band  Eigenvalues  Occupancy
  0   411     -3.07819    1.00000
  0   412     -1.20797    0.37065
  0   413     -1.17475    0.29701
  0   414     -1.10097    0.16807

  1   411     -3.07812    1.00000
  1   412     -1.19625    0.34375
  1   413     -1.18992    0.32962
  1   414     -1.09550    0.16055



Forces in eV/Ang:
  0 O    -1.48394   -0.07574    1.16308
  1 O    -1.08943    0.00786    1.22396
  2 Ti    2.49262   -0.05145    1.15544
  3 Ti    2.32158    0.59627    0.72462
  4 Ti   -0.06968    0.15625   -1.30575
  5 Ti   -1.63711    0.27988   -1.16028
  6 O     0.27265   -0.17465   -0.16017
  7 O     0.30467    0.02846   -0.19433
  8 O    -1.07072   -0.08497   -0.13673
  9 O    -0.72514    0.03106   -0.30944
 10 O     0.16110    0.49599   -1.08997
 11 O     0.20372   -0.20310   -0.77640
 12 O    -0.12887   -0.02902    0.01815
 13 O     0.07337    0.00419    0.07971
 14 Ti   -0.02915   -0.00405    0.09027
 15 Ti    0.42582    0.19126    0.54645
 16 Ti    0.04460    0.17234    0.19527
 17 Ti   -0.21622    0.33804    0.05599
 18 O    -0.08743   -0.13997    0.01323
 19 O     0.06200   -0.10426    0.02826
 20 O    -0.28494    0.01490   -0.47485
 21 O     0.18276   -0.03521    0.05625
 22 O     0.09244    0.15221   -0.08410
 23 O     0.03896   -0.16721    0.11363
 24 O    -1.76732   -0.01598    1.95204
 25 O    -0.30817   -0.03017    0.11214
 26 Ti    0.30425    0.11927    0.51725
 27 Ti    3.61540    0.08203    0.02139
 28 Ti   -0.37953    0.04098   -1.85111
 29 Ti   -0.64108    0.23835    0.23372
 30 O     0.14977   -0.15978   -0.03406
 31 O    -0.01113   -0.32919   -0.07046
 32 O    -1.17382    0.04579    0.59717
 33 O     0.04884   -0.28153   -0.77615
 34 O     0.25199    0.13131   -0.82397
 35 O    -0.32595   -0.04506   -0.12990
 36 O     0.55650   -0.01154    0.76669
 37 Ti    0.01130    0.10282   -0.26228
 38 Ti    1.55309   -0.11585    0.86186
 39 Ti   -0.55914   -0.01969    0.40777
 40 Ti   -0.94068    0.08324   -1.21681
 41 O     0.01566   -0.09951   -0.09686
 42 O    -0.01194   -0.02566    0.02309
 43 O    -0.51449    0.10083   -0.89969
 44 O     0.11605   -0.01534    0.31677
 45 O     0.14782   -0.13250    0.20851
 46 O     0.09885    0.01976    0.09787
 47 O    -1.55671    0.08477    1.96345
 48 O    -1.07384   -0.04072    1.19118
 49 Ti    2.56502   -0.03761    1.06966
 50 Ti    3.28942   -0.38949    0.27137
 51 Ti   -0.44922   -0.08700   -2.43636
 52 Ti   -1.31050    0.05223   -1.33800
 53 O     0.26510    0.08505    0.04332
 54 O     0.10219    0.15955    0.03671
 55 O    -1.21277    0.05126    0.71497
 56 O    -0.94032    0.01929   -0.12419
 57 O     0.18011    0.03567   -0.99632
 58 O     0.25646    0.00014   -0.89205
 59 O    -0.12746    0.00489    0.12107
 60 O    -0.02669   -0.10023    0.20504
 61 Ti   -0.07655   -0.23441    0.04928
 62 Ti    0.81264    0.18094    0.14334
 63 Ti   -0.27783   -0.03759   -0.76422
 64 Ti   -0.58745    0.12220   -0.75755
 65 O     0.04378    0.19579   -0.15383
 66 O    -0.14277   -0.71952   -1.19106
 67 O    -1.82300   -0.95608    0.51979
 68 O     0.09431   -0.05361   -0.04906
 69 O     0.20410    0.25022    0.17910
 70 O    -0.23369    0.04973    0.30732
 71 O    -1.26989    0.04573    1.29088
 72 O    -1.31462    0.07057    1.59902
 73 Ti    2.68902   -0.09219    0.87417
 74 Ti    2.99590   -0.90081    0.84012
 75 Ti   -0.82522   -0.15109   -1.53217
 76 Ti   -1.10656   -0.49708   -1.59625
 77 O     0.13776    0.20790   -0.13053
 78 O     0.20731    0.01968   -0.16140
 79 O    -0.84993    0.00172   -0.05295
 80 O    -0.59279   -0.04281   -0.10215
 81 O     0.05361    0.18160   -0.72267
 82 O     0.22880    0.29096   -0.94941
 83 O     0.05220    0.12835   -0.01202
 84 O     0.35966    0.03662    0.85957
 85 Ti   -0.09807    0.09991   -0.07800
 86 Ti    0.65913   -0.38347    0.30599
 87 Ti   -0.05232   -0.09680    0.16402
 88 Ti   -0.22100   -1.03750   -0.16178
 89 O    -0.12858   -0.03489   -0.00057
 90 O    -0.20787   -0.36717    0.35430
 91 O    -0.12915    0.07964   -0.35540
 92 O     0.45740    0.07502    0.01164
 93 O    -0.19924    0.01585    0.42689
 94 O    -0.06705    0.25952    0.06574
 95 V     0.89767   -2.18527   -1.02141
 96 O     0.26160    0.16340  -10.20392
 97 O     0.21573    0.44178   -0.00296
 98 O    -0.08502    0.24887    0.10726
 99 V     4.88200    6.74890   -1.06116
100 O     0.71563    1.50446    0.84663
101 O    -3.11654   -4.56829   -2.44679
102 O     0.35435   -0.28877    1.10055
103 H    -1.65870   -1.02768    2.55278
104 H    -0.97014    1.37705   11.71206

System changes: positions 

Initializing position-dependent things.

Density initialized from wave functions
          .------------------------.  
         /|                        |  
        / |                        |  
       /  |                        |  
      /   |                        |  
     /    |                        |  
    /     |                        |  
   /      |                        |  
  /       |                        |  
 *        |                        |  
 |        |                        |  
 |        |                        |  
 |        |                   O    |  
 |        O   H  O          O      |  
 |        |   Oi      O  H  OV     |  
 |      O |    OV  O     OTi     Ti|  
 |        | Oi     Oi          O   |  
 |    O   |      O     Ti O   TiO  |  
 |        TiO     O    O    O      |  
 |        OTi   TiO  O TiO  Tii    |  
 |  O  O  |O  TiTi   Ti    O  O  O |  
 |      Tii  O OO   OOO   O        |  
 |      OO| O     OTii    Tii      |  
 |   O Ti | Tii     O   OO     O   |  
 |    O   |O     OOTi    Oi        |  
 |  Ti    |Oi  O  O    O     O     |  
 |  O    O|     Ti    Ti           |  
 |       Ti         O      O       |  
 |        |  O                     |  
 |        .------------------------.  
 |       /                        /   
 |      /                        /    
 |     /                        /     
 |    /                        /      
 |   /                        /       
 |  /                        /        
 | /                        /         
 |/                        /          
 *------------------------*           

Positions:
   0 O      9.983327    2.826717    7.405169    ( 0.0000,  0.0000,  0.0000)
   1 O      4.777925    0.950160    7.421038    ( 0.0000,  0.0000,  0.0000)
   2 Ti     2.992771    0.951953    8.316961    ( 0.0000,  0.0000,  0.0000)
   3 Ti     8.214264    2.770866    8.280353    ( 0.0000,  0.0000,  0.0000)
   4 Ti     0.649548    2.836298    8.986825    ( 0.0000,  0.0000,  0.0000)
   5 Ti     5.867036    0.914346    8.949845    ( 0.0000,  0.0000,  0.0000)
   6 O      1.096680    0.957856    8.927281    ( 0.0000,  0.0000,  0.0000)
   7 O      6.330111    2.833354    8.943215    ( 0.0000,  0.0000,  0.0000)
   8 O      9.246073    2.818125    9.835439    ( 0.0000,  0.0000,  0.0000)
   9 O      4.072344    0.939541    9.847174    ( 0.0000,  0.0000,  0.0000)
  10 O      7.774441    0.909061    8.335563    ( 0.0000,  0.0000,  0.0000)
  11 O      2.582685    2.890105    8.382110    ( 0.0000,  0.0000,  0.0000)
  12 O      1.091475    2.884506   10.989297    ( 0.0000,  0.0000,  0.0000)
  13 O      6.280810    0.915647   10.949665    ( 0.0000,  0.0000,  0.0000)
  14 Ti     4.387295    0.968542   11.903143    ( 0.0000,  0.0000,  0.0000)
  15 Ti     9.578332    2.831330   11.909680    ( 0.0000,  0.0000,  0.0000)
  16 Ti     2.017727    2.842485   12.516500    ( 0.0000,  0.0000,  0.0000)
  17 Ti     7.185181    0.931162   12.473766    ( 0.0000,  0.0000,  0.0000)
  18 O      2.576616    0.968477   12.711060    ( 0.0000,  0.0000,  0.0000)
  19 O      7.694620    2.862275   12.644527    ( 0.0000,  0.0000,  0.0000)
  20 O      0.381494    2.829611   13.377185    ( 0.0000,  0.0000,  0.0000)
  21 O      5.557453    1.021217   13.333651    ( 0.0000,  0.0000,  0.0000)
  22 O      9.172853    0.951024   11.952243    ( 0.0000,  0.0000,  0.0000)
  23 O      3.958574    2.931222   11.831777    ( 0.0000,  0.0000,  0.0000)
  24 O      9.991155    6.702438    7.394704    ( 0.0000,  0.0000,  0.0000)
  25 O      4.618599    4.771370    7.946370    ( 0.0000,  0.0000,  0.0000)
  26 Ti     2.775043    4.775937    7.983327    ( 0.0000,  0.0000,  0.0000)
  27 Ti     8.215116    6.733658    8.263758    ( 0.0000,  0.0000,  0.0000)
  28 Ti     0.698994    6.682604    9.155328    ( 0.0000,  0.0000,  0.0000)
  29 Ti     6.091392    4.752901    9.031818    ( 0.0000,  0.0000,  0.0000)
  30 O      1.061195    4.769445    8.936857    ( 0.0000,  0.0000,  0.0000)
  31 O      6.347502    6.689180    8.953041    ( 0.0000,  0.0000,  0.0000)
  32 O      9.247434    6.689998    9.820961    ( 0.0000,  0.0000,  0.0000)
  33 O      7.814993    4.761002    8.270793    ( 0.0000,  0.0000,  0.0000)
  34 O      2.586823    6.648076    8.393045    ( 0.0000,  0.0000,  0.0000)
  35 O      1.068296    6.604690   11.083123    ( 0.0000,  0.0000,  0.0000)
  36 O      5.976520    4.738802   10.957125    ( 0.0000,  0.0000,  0.0000)
  37 Ti     4.367438    4.781533   12.269093    ( 0.0000,  0.0000,  0.0000)
  38 Ti     9.549351    6.666061   11.870006    ( 0.0000,  0.0000,  0.0000)
  39 Ti     2.051338    6.645766   12.796181    ( 0.0000,  0.0000,  0.0000)
  40 Ti     7.225021    4.733519   12.476221    ( 0.0000,  0.0000,  0.0000)
  41 O      2.539032    4.710348   12.970354    ( 0.0000,  0.0000,  0.0000)
  42 O      7.656591    6.625895   12.645323    ( 0.0000,  0.0000,  0.0000)
  43 O      0.344741    6.685350   13.455741    ( 0.0000,  0.0000,  0.0000)
  44 O      5.680125    4.774354   13.505002    ( 0.0000,  0.0000,  0.0000)
  45 O      9.106710    4.759878   11.831960    ( 0.0000,  0.0000,  0.0000)
  46 O      3.941396    6.547709   11.785892    ( 0.0000,  0.0000,  0.0000)
  47 O      9.979105   10.517481    7.368578    ( 0.0000,  0.0000,  0.0000)
  48 O      4.830067    8.585896    7.392832    ( 0.0000,  0.0000,  0.0000)
  49 Ti     2.946753    8.591607    8.221081    ( 0.0000,  0.0000,  0.0000)
  50 Ti     8.140942   10.565202    8.215386    ( 0.0000,  0.0000,  0.0000)
  51 Ti     0.700936   10.528217    9.050547    ( 0.0000,  0.0000,  0.0000)
  52 Ti     5.910228    8.594333    8.925511    ( 0.0000,  0.0000,  0.0000)
  53 O      1.119767    8.579194    8.959972    ( 0.0000,  0.0000,  0.0000)
  54 O      6.293288   10.509086    8.948589    ( 0.0000,  0.0000,  0.0000)
  55 O      9.251487   10.459366    9.758824    ( 0.0000,  0.0000,  0.0000)
  56 O      4.077357    8.568080    9.750910    ( 0.0000,  0.0000,  0.0000)
  57 O      7.783045    8.614152    8.310648    ( 0.0000,  0.0000,  0.0000)
  58 O      2.598407   10.487951    8.367711    ( 0.0000,  0.0000,  0.0000)
  59 O      1.085372   10.563533   11.017125    ( 0.0000,  0.0000,  0.0000)
  60 O      6.221926    8.537254   11.020046    ( 0.0000,  0.0000,  0.0000)
  61 Ti     4.274879    8.599245   11.632193    ( 0.0000,  0.0000,  0.0000)
  62 Ti     9.436276   10.597977   11.670666    ( 0.0000,  0.0000,  0.0000)
  63 Ti     2.060390   10.551136   12.606461    ( 0.0000,  0.0000,  0.0000)
  64 Ti     7.225487    8.545408   12.537257    ( 0.0000,  0.0000,  0.0000)
  65 O      2.524227    8.584058   12.416601    ( 0.0000,  0.0000,  0.0000)
  66 O      7.647503   10.496529   12.400960    ( 0.0000,  0.0000,  0.0000)
  67 O      0.372033   10.512988   13.398892    ( 0.0000,  0.0000,  0.0000)
  68 O      5.311054    8.533235   13.406561    ( 0.0000,  0.0000,  0.0000)
  69 O      9.069971    8.549145   11.891715    ( 0.0000,  0.0000,  0.0000)
  70 O      4.034922   10.500186   11.806287    ( 0.0000,  0.0000,  0.0000)
  71 O      9.951565   14.316478    7.412126    ( 0.0000,  0.0000,  0.0000)
  72 O      4.790439   12.403697    7.456106    ( 0.0000,  0.0000,  0.0000)
  73 Ti     3.040360   12.417444    8.304489    ( 0.0000,  0.0000,  0.0000)
  74 Ti     8.175322   14.351580    8.303673    ( 0.0000,  0.0000,  0.0000)
  75 Ti     0.678445   14.311272    8.962431    ( 0.0000,  0.0000,  0.0000)
  76 Ti     5.873121   12.443731    9.096660    ( 0.0000,  0.0000,  0.0000)
  77 O      1.095472   12.403928    8.923866    ( 0.0000,  0.0000,  0.0000)
  78 O      6.267805   14.327702    8.933474    ( 0.0000,  0.0000,  0.0000)
  79 O      9.249243   14.380319    9.837598    ( 0.0000,  0.0000,  0.0000)
  80 O      4.055140   12.450306    9.872991    ( 0.0000,  0.0000,  0.0000)
  81 O      7.776214   12.427244    8.385197    ( 0.0000,  0.0000,  0.0000)
  82 O      2.585637   14.320047    8.360858    ( 0.0000,  0.0000,  0.0000)
  83 O      1.105991   14.323212   10.963858    ( 0.0000,  0.0000,  0.0000)
  84 O      6.265605   12.482512   11.051848    ( 0.0000,  0.0000,  0.0000)
  85 Ti     4.454551   12.410764   11.916717    ( 0.0000,  0.0000,  0.0000)
  86 Ti     9.585869   14.363865   11.905508    ( 0.0000,  0.0000,  0.0000)
  87 Ti     2.051019   14.321510   12.473907    ( 0.0000,  0.0000,  0.0000)
  88 Ti     7.222394   12.460163   12.734961    ( 0.0000,  0.0000,  0.0000)
  89 O      2.585129   12.422001   12.713562    ( 0.0000,  0.0000,  0.0000)
  90 O      7.748721   14.349363   12.726399    ( 0.0000,  0.0000,  0.0000)
  91 O      0.431330   14.312696   13.354410    ( 0.0000,  0.0000,  0.0000)
  92 O      5.547857   12.390399   13.432670    ( 0.0000,  0.0000,  0.0000)
  93 O      9.192199   12.434877   11.799092    ( 0.0000,  0.0000,  0.0000)
  94 O      4.036271   14.332611   11.951718    ( 0.0000,  0.0000,  0.0000)
  95 V      3.987164    8.504184   14.654473    ( 0.0000,  0.0000,  0.0000)
  96 O      3.000856   10.076639   14.453959    ( 0.0000,  0.0000,  0.0000)
  97 O      3.034065    7.070865   14.491327    ( 0.0000,  0.0000,  0.0000)
  98 O      4.613957    8.552514   16.123510    ( 0.0000,  0.0000,  0.0000)
  99 V      9.213534    9.957414   14.652504    ( 0.0000,  0.0000,  0.0000)
 100 O      8.241821   11.309103   14.472147    ( 0.0000,  0.0000,  0.0000)
 101 O      7.947314    8.835375   14.519934    ( 0.0000,  0.0000,  0.0000)
 102 O      9.755185    9.919568   16.142607    ( 0.0000,  0.0000,  0.0000)
 103 H      7.634773    8.735066   15.401001    ( 0.0000,  0.0000,  0.0000)
 104 H      3.001131   10.034728   15.321960    ( 0.0000,  0.0000,  0.0000)

Unit cell:
           periodic     x           y           z      points  spacing
  1. axis:    yes   10.341746    0.000000    0.000000    54     0.1915
  2. axis:    yes   -0.000000   15.289380    0.000000    80     0.1911
  3. axis:    yes    0.000000    0.000000   23.497201   125     0.1880

  Lengths:  10.341746  15.289380  23.497201
  Angles:   90.000000  90.000000  90.000000

Effective grid spacing dv^(1/3) = 0.1902

                     log10-error:    total        iterations:
           time      wfs    density  energy       fermi  poisson
iter:   1  11:40:05  -2.39   +inf  -856.506018    4             
iter:   2  11:40:36  -3.35  -2.98  -856.490348    3             
iter:   3  11:41:06  -3.68  -3.03  -856.453708    3             
iter:   4  11:41:37  -3.35  -3.14  -856.439562    4             
iter:   5  11:42:08  -4.29  -3.29  -856.436977    3             
iter:   6  11:42:39  -3.98  -3.36  -856.428749    3             
iter:   7  11:43:09  -4.11  -3.47  -856.433481    3             
iter:   8  11:43:40  -4.97  -3.58  -856.430863    3             
iter:   9  11:44:12  -4.95  -3.73  -856.430301    3             
iter:  10  11:44:42  -5.51  -3.87  -856.429619    3             
iter:  11  11:45:13  -5.61  -3.97  -856.430000    3             
iter:  12  11:45:44  -5.42  -4.09  -856.429860    3             
iter:  13  11:46:16  -6.03  -4.19  -856.429917    2             
iter:  14  11:46:46  -6.28  -4.33  -856.429893    2             
iter:  15  11:47:17  -6.29  -4.39  -856.429820    3             
iter:  16  11:47:47  -6.66  -4.54  -856.429785    2             
iter:  17  11:48:19  -7.27  -4.64  -856.429876    2             
iter:  18  11:48:49  -7.57  -4.73  -856.429795    2             

Converged after 18 iterations.

Dipole moment: (0.884548, -1.757876, -0.828618) |e|*Ang

Energy contributions relative to reference atoms: (reference = -935653.237240)

Kinetic:       +643.406739
Potential:     -802.749039
External:        +0.000000
XC:            -703.146718
Entropy (-ST):   -0.509069
Local:           +6.313758
--------------------------
Free energy:   -856.684329
Extrapolated:  -856.429795

Fermi level: -1.26505

Showing all kpts
 Kpt  Band  Eigenvalues  Occupancy
  0   411     -3.13512    1.00000
  0   412     -1.21277    0.37220
  0   413     -1.17965    0.29860
  0   414     -1.10592    0.16921

  1   411     -3.13508    1.00000
  1   412     -1.20075    0.34458
  1   413     -1.19487    0.33143
  1   414     -1.10073    0.16203



Forces in eV/Ang:
  0 O    -1.48540   -0.07566    1.16074
  1 O    -1.08590    0.00758    1.22491
  2 Ti    2.48724   -0.04732    1.15389
  3 Ti    2.34777    0.59077    0.74034
  4 Ti   -0.08636    0.15461   -1.30398
  5 Ti   -1.63687    0.27718   -1.15293
  6 O     0.27472   -0.17854   -0.16066
  7 O     0.29361    0.04989   -0.18410
  8 O    -1.07358   -0.08251   -0.16131
  9 O    -0.72249    0.03127   -0.30512
 10 O     0.15653    0.49675   -1.09224
 11 O     0.20715   -0.20307   -0.77586
 12 O    -0.09231   -0.02365    0.04489
 13 O     0.04807    0.00823    0.05775
 14 Ti   -0.01012   -0.00374    0.08789
 15 Ti    0.32744    0.16967    0.47803
 16 Ti    0.05303    0.13384    0.14655
 17 Ti   -0.13247    0.27282    0.06009
 18 O    -0.09542   -0.11818    0.02018
 19 O     0.04991   -0.07669    0.02038
 20 O    -0.23372    0.01933   -0.37789
 21 O     0.14097   -0.02985    0.05898
 22 O     0.09278    0.10994   -0.07671
 23 O     0.03286   -0.14103    0.11044
 24 O    -1.76196   -0.01535    1.94885
 25 O    -0.27897   -0.03015    0.12116
 26 Ti    0.29073    0.11708    0.51809
 27 Ti    3.64862    0.08462    0.04685
 28 Ti   -0.42393    0.03403   -1.89618
 29 Ti   -0.63462    0.23670    0.20582
 30 O     0.15156   -0.15545   -0.03170
 31 O    -0.02451   -0.34575   -0.05957
 32 O    -1.16818    0.04532    0.57130
 33 O     0.02798   -0.28304   -0.77375
 34 O     0.25515    0.13351   -0.82137
 35 O    -0.25689   -0.04859   -0.07710
 36 O     0.50104   -0.01207    0.66214
 37 Ti    0.02712    0.08014   -0.19421
 38 Ti    1.31122   -0.08766    0.78071
 39 Ti   -0.43815   -0.02180    0.34265
 40 Ti   -0.79648    0.11076   -1.11166
 41 O    -0.00351   -0.06235   -0.08633
 42 O    -0.00672   -0.04991   -0.02958
 43 O    -0.47498    0.08884   -0.77222
 44 O     0.06765   -0.01536    0.25499
 45 O     0.14625   -0.10887    0.20669
 46 O     0.08086    0.02287    0.09585
 47 O    -1.54427    0.08501    1.97008
 48 O    -1.06941   -0.04019    1.19390
 49 Ti    2.56312   -0.04591    1.05834
 50 Ti    3.29299   -0.39317    0.27596
 51 Ti   -0.47587   -0.09015   -2.50087
 52 Ti   -1.30888    0.05325   -1.34378
 53 O     0.26378    0.09578    0.05307
 54 O     0.09616    0.16872    0.04423
 55 O    -1.19266    0.05739    0.71709
 56 O    -0.94209    0.02119   -0.11374
 57 O     0.17338    0.03905   -0.99492
 58 O     0.25484    0.00793   -0.88507
 59 O    -0.12550    0.01102    0.13542
 60 O    -0.08474   -0.09836    0.12602
 61 Ti   -0.06684   -0.23542    0.01707
 62 Ti    0.69180    0.12792    0.12102
 63 Ti   -0.19919   -0.04627   -0.64973
 64 Ti   -0.39977    0.06078   -0.55889
 65 O     0.00562    0.14672   -0.16294
 66 O    -0.11951   -0.61583   -1.07151
 67 O    -1.63236   -0.88006    0.41281
 68 O     0.13139   -0.08245   -0.13070
 69 O     0.21588    0.19874    0.15120
 70 O    -0.25650    0.05739    0.29274
 71 O    -1.26709    0.04433    1.29028
 72 O    -1.30155    0.07029    1.61048
 73 Ti    2.67351   -0.08799    0.85925
 74 Ti    3.00933   -0.89579    0.85003
 75 Ti   -0.84105   -0.13613   -1.53878
 76 Ti   -1.09973   -0.49193   -1.59715
 77 O     0.13912    0.19562   -0.12148
 78 O     0.19989    0.00497   -0.15491
 79 O    -0.84386   -0.00672   -0.06304
 80 O    -0.56894   -0.04332   -0.07455
 81 O     0.04538    0.17984   -0.71907
 82 O     0.23245    0.28266   -0.94801
 83 O     0.06583    0.11593    0.00203
 84 O     0.30312    0.02793    0.72988
 85 Ti   -0.06361    0.11177   -0.04470
 86 Ti    0.50322   -0.31288    0.28086
 87 Ti   -0.01855   -0.07091    0.13374
 88 Ti   -0.16224   -0.90751   -0.16925
 89 O    -0.14685   -0.04650   -0.00523
 90 O    -0.17592   -0.33994    0.32718
 91 O    -0.10427    0.06642   -0.28216
 92 O     0.37337    0.05520    0.02692
 93 O    -0.15628   -0.01102    0.40697
 94 O    -0.06790    0.21578    0.06728
 95 V     0.78095   -1.68953   -0.79215
 96 O     0.44409   -0.17092   -6.62324
 97 O     0.10484    0.23729   -0.03785
 98 O    -0.08045    0.20276    0.06359
 99 V     3.82596    5.34991   -0.53354
100 O     0.54564    1.57507    0.76340
101 O    -2.23572   -3.61374   -1.73872
102 O     0.22264   -0.21177    0.60708
103 H    -1.34114   -0.83962    1.83046
104 H    -1.04511    1.51073    8.12033

System changes: positions 

Initializing position-dependent things.

Density initialized from wave functions
          .------------------------.  
         /|                        |  
        / |                        |  
       /  |                        |  
      /   |                        |  
     /    |                        |  
    /     |                        |  
   /      |                        |  
  /       |                        |  
 *        |                        |  
 |        |                        |  
 |        |                        |  
 |        |                   O    |  
 |        O   H  O          O      |  
 |        |   Oi      O  H  OV     |  
 |      O |    OV  O     OTi     Ti|  
 |        | Oi     Oi          O   |  
 |    O   |      O     Ti O   TiO  |  
 |        TiO     O    O    O      |  
 |        OTi   TiO  O TiO  Tii    |  
 |  O  O  |O  TiTi   Ti    O  O  O |  
 |      Tii  O OO   OOO   O        |  
 |      OO| O     OTii    Tii      |  
 |   O Ti | Tii     O   OO     O   |  
 |    O   |O     OOTi    Oi        |  
 |  Ti    |Oi  O  O    O     O     |  
 |  O    O|     Ti    Ti           |  
 |       Ti         O      O       |  
 |        |  O                     |  
 |        .------------------------.  
 |       /                        /   
 |      /                        /    
 |     /                        /     
 |    /                        /      
 |   /                        /       
 |  /                        /        
 | /                        /         
 |/                        /          
 *------------------------*           

Positions:
   0 O      9.983327    2.826717    7.405169    ( 0.0000,  0.0000,  0.0000)
   1 O      4.777925    0.950160    7.421038    ( 0.0000,  0.0000,  0.0000)
   2 Ti     2.992771    0.951953    8.316961    ( 0.0000,  0.0000,  0.0000)
   3 Ti     8.214264    2.770866    8.280353    ( 0.0000,  0.0000,  0.0000)
   4 Ti     0.649548    2.836298    8.986825    ( 0.0000,  0.0000,  0.0000)
   5 Ti     5.867036    0.914346    8.949845    ( 0.0000,  0.0000,  0.0000)
   6 O      1.096680    0.957856    8.927281    ( 0.0000,  0.0000,  0.0000)
   7 O      6.330111    2.833354    8.943215    ( 0.0000,  0.0000,  0.0000)
   8 O      9.246073    2.818125    9.835439    ( 0.0000,  0.0000,  0.0000)
   9 O      4.072344    0.939541    9.847174    ( 0.0000,  0.0000,  0.0000)
  10 O      7.774441    0.909061    8.335563    ( 0.0000,  0.0000,  0.0000)
  11 O      2.582685    2.890105    8.382110    ( 0.0000,  0.0000,  0.0000)
  12 O      1.091091    2.884474   10.989665    ( 0.0000,  0.0000,  0.0000)
  13 O      6.280963    0.915756   10.949701    ( 0.0000,  0.0000,  0.0000)
  14 Ti     4.387256    0.968679   11.903498    ( 0.0000,  0.0000,  0.0000)
  15 Ti     9.579901    2.832353   11.912296    ( 0.0000,  0.0000,  0.0000)
  16 Ti     2.018131    2.843231   12.516965    ( 0.0000,  0.0000,  0.0000)
  17 Ti     7.184822    0.932613   12.474163    ( 0.0000,  0.0000,  0.0000)
  18 O      2.575841    0.967799   12.711023    ( 0.0000,  0.0000,  0.0000)
  19 O      7.694903    2.861838   12.644690    ( 0.0000,  0.0000,  0.0000)
  20 O      0.380159    2.829698   13.375020    ( 0.0000,  0.0000,  0.0000)
  21 O      5.558041    1.021157   13.333984    ( 0.0000,  0.0000,  0.0000)
  22 O      9.173488    0.951452   11.951536    ( 0.0000,  0.0000,  0.0000)
  23 O      3.958659    2.930502   11.832412    ( 0.0000,  0.0000,  0.0000)
  24 O      9.991155    6.702438    7.394704    ( 0.0000,  0.0000,  0.0000)
  25 O      4.618599    4.771370    7.946370    ( 0.0000,  0.0000,  0.0000)
  26 Ti     2.775043    4.775937    7.983327    ( 0.0000,  0.0000,  0.0000)
  27 Ti     8.215116    6.733658    8.263758    ( 0.0000,  0.0000,  0.0000)
  28 Ti     0.698994    6.682604    9.155328    ( 0.0000,  0.0000,  0.0000)
  29 Ti     6.091392    4.752901    9.031818    ( 0.0000,  0.0000,  0.0000)
  30 O      1.061195    4.769445    8.936857    ( 0.0000,  0.0000,  0.0000)
  31 O      6.347502    6.689180    8.953041    ( 0.0000,  0.0000,  0.0000)
  32 O      9.247434    6.689998    9.820961    ( 0.0000,  0.0000,  0.0000)
  33 O      7.814993    4.761002    8.270793    ( 0.0000,  0.0000,  0.0000)
  34 O      2.586823    6.648076    8.393045    ( 0.0000,  0.0000,  0.0000)
  35 O      1.066959    6.604329   11.082730    ( 0.0000,  0.0000,  0.0000)
  36 O      5.979503    4.738621   10.961086    ( 0.0000,  0.0000,  0.0000)
  37 Ti     4.367841    4.782192   12.268078    ( 0.0000,  0.0000,  0.0000)
  38 Ti     9.556417    6.665731   11.874656    ( 0.0000,  0.0000,  0.0000)
  39 Ti     2.048835    6.645540   12.797458    ( 0.0000,  0.0000,  0.0000)
  40 Ti     7.220401    4.734602   12.469517    ( 0.0000,  0.0000,  0.0000)
  41 O      2.538782    4.710240   12.969731    ( 0.0000,  0.0000,  0.0000)
  42 O      7.656475    6.625115   12.643850    ( 0.0000,  0.0000,  0.0000)
  43 O      0.341779    6.685873   13.450750    ( 0.0000,  0.0000,  0.0000)
  44 O      5.680102    4.774407   13.506382    ( 0.0000,  0.0000,  0.0000)
  45 O      9.107618    4.759186   11.833167    ( 0.0000,  0.0000,  0.0000)
  46 O      3.941742    6.547922   11.786443    ( 0.0000,  0.0000,  0.0000)
  47 O      9.979105   10.517481    7.368578    ( 0.0000,  0.0000,  0.0000)
  48 O      4.830067    8.585896    7.392832    ( 0.0000,  0.0000,  0.0000)
  49 Ti     2.946753    8.591607    8.221081    ( 0.0000,  0.0000,  0.0000)
  50 Ti     8.140942   10.565202    8.215386    ( 0.0000,  0.0000,  0.0000)
  51 Ti     0.700936   10.528217    9.050547    ( 0.0000,  0.0000,  0.0000)
  52 Ti     5.910228    8.594333    8.925511    ( 0.0000,  0.0000,  0.0000)
  53 O      1.119767    8.579194    8.959972    ( 0.0000,  0.0000,  0.0000)
  54 O      6.293288   10.509086    8.948589    ( 0.0000,  0.0000,  0.0000)
  55 O      9.251487   10.459366    9.758824    ( 0.0000,  0.0000,  0.0000)
  56 O      4.077357    8.568080    9.750910    ( 0.0000,  0.0000,  0.0000)
  57 O      7.783045    8.614152    8.310648    ( 0.0000,  0.0000,  0.0000)
  58 O      2.598407   10.487951    8.367711    ( 0.0000,  0.0000,  0.0000)
  59 O      1.084668   10.563709   11.018116    ( 0.0000,  0.0000,  0.0000)
[...]
  78 O      6.267805   14.327702    8.933474    ( 0.0000,  0.0000,  0.0000)
  79 O      9.249243   14.380319    9.837598    ( 0.0000,  0.0000,  0.0000)
  80 O      4.055140   12.450306    9.872991    ( 0.0000,  0.0000,  0.0000)
  81 O      7.776214   12.427244    8.385197    ( 0.0000,  0.0000,  0.0000)
  82 O      2.585637   14.320047    8.360858    ( 0.0000,  0.0000,  0.0000)
  83 O      1.111213   14.339268   10.999310    ( 0.0000,  0.0000,  0.0000)
  84 O      6.256756   12.475296   11.040550    ( 0.0000,  0.0000,  0.0000)
  85 Ti     4.383620   12.389471   11.979634    ( 0.0000,  0.0000,  0.0000)
  86 Ti     9.599192   14.337585   11.965840    ( 0.0000,  0.0000,  0.0000)
  87 Ti     2.049768   14.334025   12.511854    ( 0.0000,  0.0000,  0.0000)
  88 Ti     7.198571   12.437494   12.565960    ( 0.0000,  0.0000,  0.0000)
  89 O      2.539334   12.414486   12.766569    ( 0.0000,  0.0000,  0.0000)
  90 O      7.733708   14.326766   12.757554    ( 0.0000,  0.0000,  0.0000)
  91 O      0.420889   14.332233   13.386058    ( 0.0000,  0.0000,  0.0000)
  92 O      5.566228   12.339361   13.407279    ( 0.0000,  0.0000,  0.0000)
  93 O      9.188949   12.418817   11.893465    ( 0.0000,  0.0000,  0.0000)
  94 O      4.020353   14.335702   12.003675    ( 0.0000,  0.0000,  0.0000)
  95 V      3.976773    8.484211   14.728661    ( 0.0000,  0.0000,  0.0000)
  96 O      2.853110   10.000680   14.601403    ( 0.0000,  0.0000,  0.0000)
  97 O      3.029321    7.048971   14.497301    ( 0.0000,  0.0000,  0.0000)
  98 O      4.654634    8.434744   16.160983    ( 0.0000,  0.0000,  0.0000)
  99 V      9.579877    9.640220   14.898665    ( 0.0000,  0.0000,  0.0000)
 100 O      9.221552   11.050040   15.599220    ( 0.0000,  0.0000,  0.0000)
 101 O      7.922253    8.707505   14.545343    ( 0.0000,  0.0000,  0.0000)
 102 O     10.361129    8.772748   15.994052    ( 0.0000,  0.0000,  0.0000)
 103 H      7.597992    8.113164   15.243815    ( 0.0000,  0.0000,  0.0000)
 104 H      2.560661   10.487448   15.393616    ( 0.0000,  0.0000,  0.0000)

Unit cell:
           periodic     x           y           z      points  spacing
  1. axis:    yes   10.341746    0.000000    0.000000    54     0.1915
  2. axis:    yes   -0.000000   15.289380    0.000000    80     0.1911
  3. axis:    yes    0.000000    0.000000   23.497201   125     0.1880

  Lengths:  10.341746  15.289380  23.497201
  Angles:   90.000000  90.000000  90.000000

Effective grid spacing dv^(1/3) = 0.1902

                     log10-error:    total        iterations:
           time      wfs    density  energy       fermi  poisson
iter:   1  16:47:28  -4.24   +inf  -858.767126    3             
iter:   2  16:47:58  -5.09  -4.13  -858.765191    3             
iter:   3  16:48:29  -5.67  -4.19  -858.765762    2             
iter:   4  16:48:59  -5.84  -4.32  -858.765610    3             
iter:   5  16:49:30  -5.88  -4.43  -858.765506    3             
iter:   6  16:50:01  -6.39  -4.56  -858.765596    2             
iter:   7  16:50:31  -6.67  -4.64  -858.765512    2             
iter:   8  16:51:02  -7.16  -4.83  -858.765535    2             
iter:   9  16:51:33  -7.15  -4.88  -858.765491    2             
iter:  10  16:52:03  -7.13  -5.01  -858.765589    2             
iter:  11  16:52:34  -7.68  -5.16  -858.765547    2             

Converged after 11 iterations.

Dipole moment: (-3.719988, -1.967253, -1.173969) |e|*Ang

Energy contributions relative to reference atoms: (reference = -935653.237240)

Kinetic:       +619.877842
Potential:     -786.367454
External:        +0.000000
XC:            -698.378385
Entropy (-ST):   -0.519231
Local:           +6.362066
--------------------------
Free energy:   -859.025162
Extrapolated:  -858.765547

Fermi level: -1.33493

Showing all kpts
 Kpt  Band  Eigenvalues  Occupancy
  0   411     -2.89273    1.00000
  0   412     -1.28021    0.36650
  0   413     -1.23840    0.27581
  0   414     -1.18739    0.18612

  1   411     -2.89295    1.00000
  1   412     -1.27346    0.35098
  1   413     -1.24903    0.29754
  1   414     -1.18280    0.17927



Forces in eV/Ang:
  0 O    -1.43425   -0.07656    1.18260
  1 O    -1.01979    0.00747    1.24377
  2 Ti    2.51339   -0.05221    1.23277
  3 Ti    2.52031    0.56781    0.88769
  4 Ti   -0.25408    0.13285   -1.15132
  5 Ti   -1.73839    0.26523   -1.06077
  6 O     0.27816   -0.17875   -0.14383
  7 O     0.23610    0.14620   -0.09874
  8 O    -1.04823   -0.03752   -0.16918
  9 O    -0.69815    0.02130   -0.18510
 10 O     0.12365    0.49691   -1.10315
 11 O     0.21304   -0.18791   -0.75743
 12 O    -0.00186    0.00421    0.00776
 13 O     0.00530    0.00297   -0.00573
 14 Ti    0.00616   -0.00438    0.01015
 15 Ti   -0.00166   -0.00257    0.00338
 16 Ti    0.01473   -0.01275    0.00281
 17 Ti    0.01343   -0.00662    0.01133
 18 O     0.00304    0.00001   -0.00516
 19 O     0.00492   -0.01347   -0.00106
 20 O     0.00001    0.00009   -0.00922
 21 O    -0.00150    0.00096    0.00055
 22 O     0.00515   -0.01494    0.00137
 23 O    -0.00055   -0.00806    0.00279
 24 O    -1.69156   -0.02075    1.95404
 25 O    -0.14054   -0.02667    0.15924
 26 Ti    0.23634    0.09740    0.52643
 27 Ti    3.86907    0.13290    0.23939
 28 Ti   -0.70323   -0.01967   -1.92942
 29 Ti   -0.64488    0.21814   -0.09636
 30 O     0.15856   -0.16451   -0.00527
 31 O    -0.10082   -0.36100    0.05686
 32 O    -1.12774    0.02986    0.36267
 33 O    -0.06798   -0.28818   -0.76112
 34 O     0.26169    0.14019   -0.79691
 35 O     0.00625    0.00987   -0.00985
 36 O    -0.01163   -0.00075   -0.01817
 37 Ti   -0.00689   -0.01630   -0.00585
 38 Ti   -0.03676   -0.04493   -0.02503
 39 Ti    0.01535   -0.03387   -0.00973
 40 Ti   -0.00256    0.00351   -0.01541
 41 O    -0.00141   -0.01168   -0.00484
 42 O    -0.00757   -0.02203   -0.06038
 43 O    -0.03208   -0.05339   -0.01751
 44 O     0.00366    0.00226   -0.00078
 45 O     0.00372   -0.00547   -0.01683
 46 O     0.02161   -0.02221   -0.00076
 47 O    -1.42099    0.09175    1.95816
 48 O    -0.98724   -0.03274    1.23717
 49 Ti    2.62119   -0.04990    1.08469
 50 Ti    3.58952   -0.45754    0.60749
 51 Ti   -1.00349   -0.04672   -2.54627
 52 Ti   -1.39193    0.13487   -1.20053
 53 O     0.26247    0.10295    0.15908
 54 O     0.05559    0.21025    0.08214
 55 O    -1.09732    0.14398    0.95864
 56 O    -0.95263    0.02581    0.07092
 57 O     0.11134    0.02678   -1.01680
 58 O     0.26858    0.01400   -0.87235
 59 O    -0.00412    0.00790    0.02064
 60 O    -0.00454    0.00771    0.01234
 61 Ti    0.01256   -0.03054   -0.00896
 62 Ti    0.02255   -0.00318   -0.03270
 63 Ti   -0.01499   -0.01953   -0.02022
 64 Ti   -0.01816   -0.05958   -0.02885
 65 O    -0.02044   -0.00154    0.01901
 66 O     0.02115   -0.01084    0.01216
 67 O     0.08906   -0.11605   -0.06816
 68 O    -0.00610    0.01642   -0.00745
 69 O    -0.01143   -0.00768    0.02796
 70 O     0.00116   -0.02182    0.00148
 71 O    -1.19959    0.04435    1.31066
 72 O    -1.23162    0.07181    1.66439
 73 Ti    2.64357   -0.08114    0.90343
 74 Ti    3.15883   -0.88138    0.98165
 75 Ti   -0.99728   -0.09866   -1.36592
 76 Ti   -1.34129   -0.50230   -2.18880
 77 O     0.16262    0.21481   -0.07863
 78 O     0.17643   -0.04663   -0.09234
 79 O    -0.80363   -0.09436   -0.00176
 80 O    -0.49744   -0.06106    0.18519
 81 O    -0.01555    0.21416   -0.69952
 82 O     0.22744    0.26740   -0.93479
 83 O    -0.00448    0.00209   -0.00455
 84 O     0.01356   -0.00447   -0.00899
 85 Ti    0.01176   -0.00166    0.01694
 86 Ti   -0.00381   -0.00083    0.00677
 87 Ti   -0.01385    0.00170    0.00994
 88 Ti   -0.01291   -0.01177   -0.02141
 89 O    -0.00008   -0.01730    0.02073
 90 O     0.00168   -0.00608    0.00068
 91 O    -0.00098    0.00425   -0.00038
 92 O    -0.01107   -0.00922    0.00355
 93 O    -0.00981   -0.01011   -0.01649
 94 O    -0.01532    0.00905    0.00120
 95 V    -0.03306   -0.07397   -0.04676
 96 O     0.10994    0.09674   -0.12086
 97 O     0.02253   -0.01392    0.00548
 98 O     0.02574   -0.01051    0.04322
 99 V    -0.07758    0.83288    0.37739
100 O    -0.21178   -0.03016   -0.02574
101 O    -0.20851   -0.03429   -0.08265
102 O     0.36615   -0.10158   -0.02468
103 H    -0.03895   -0.11464    0.04334
104 H     0.06254    0.02032    0.11195

System changes: positions 

Initializing position-dependent things.

Density initialized from wave functions
          .------------------------.  
         /|                        |  
        / |                        |  
       /  |                        |  
      /   |                        |  
     /    |                        |  
    /     |                        |  
   /      |                        |  
  /       |                        |  
 *        |                        |  
 |        |                        |  
 |        |                        |  
 |        |                   O    |  
 |    O   O  H   O                 |  
 |        |   Oi      O H   O V    |  
 |      O |   O V  O     OTi     Ti|  
 |        | Oi     Oi     O    O   |  
 |    O   |      O     OTi    TiO  |  
 |        TiO     O         O      |  
 |        OTi   TiO  O OiO  Tii    |  
 |  O  O  |O  TiTi   Ti    O  O  O |  
 |      Tii  O OO   OOO   O        |  
 |      OO| O     OTii    Tii      |  
 |   O Ti | Tii     O   OO     O   |  
 |    O   |O     OOTi    Oi        |  
 |  Ti    |Oi  O  O    O     O     |  
 |  O    O|     Ti    Ti           |  
 |       Ti         O      O       |  
 |        |  O                     |  
 |        .------------------------.  
 |       /                        /   
 |      /                        /    
 |     /                        /     
 |    /                        /      
 |   /                        /       
 |  /                        /        
 | /                        /         
 |/                        /          
 *------------------------*           

Positions:
   0 O      9.983327    2.826717    7.405169    ( 0.0000,  0.0000,  0.0000)
   1 O      4.777925    0.950160    7.421038    ( 0.0000,  0.0000,  0.0000)
   2 Ti     2.992771    0.951953    8.316961    ( 0.0000,  0.0000,  0.0000)
   3 Ti     8.214264    2.770866    8.280353    ( 0.0000,  0.0000,  0.0000)
   4 Ti     0.649548    2.836298    8.986825    ( 0.0000,  0.0000,  0.0000)
   5 Ti     5.867036    0.914346    8.949845    ( 0.0000,  0.0000,  0.0000)
   6 O      1.096680    0.957856    8.927281    ( 0.0000,  0.0000,  0.0000)
   7 O      6.330111    2.833354    8.943215    ( 0.0000,  0.0000,  0.0000)
   8 O      9.246073    2.818125    9.835439    ( 0.0000,  0.0000,  0.0000)
   9 O      4.072344    0.939541    9.847174    ( 0.0000,  0.0000,  0.0000)
  10 O      7.774441    0.909061    8.335563    ( 0.0000,  0.0000,  0.0000)
  11 O      2.582685    2.890105    8.382110    ( 0.0000,  0.0000,  0.0000)
  12 O      1.088277    2.874292   11.022944    ( 0.0000,  0.0000,  0.0000)
  13 O      6.275825    0.910915   10.967057    ( 0.0000,  0.0000,  0.0000)
  14 Ti     4.401810    0.955144   11.940952    ( 0.0000,  0.0000,  0.0000)
  15 Ti     9.590389    2.845203   11.966464    ( 0.0000,  0.0000,  0.0000)
  16 Ti     2.023528    2.847564   12.543558    ( 0.0000,  0.0000,  0.0000)
  17 Ti     7.203905    0.945467   12.481095    ( 0.0000,  0.0000,  0.0000)
  18 O      2.569115    0.971391   12.753167    ( 0.0000,  0.0000,  0.0000)
  19 O      7.693300    2.875048   12.621985    ( 0.0000,  0.0000,  0.0000)
  20 O      0.378277    2.855812   13.401736    ( 0.0000,  0.0000,  0.0000)
  21 O      5.577251    1.007907   13.356509    ( 0.0000,  0.0000,  0.0000)
  22 O      9.187724    0.950238   11.990010    ( 0.0000,  0.0000,  0.0000)
  23 O      3.973225    2.922409   11.871977    ( 0.0000,  0.0000,  0.0000)
  24 O      9.991155    6.702438    7.394704    ( 0.0000,  0.0000,  0.0000)
  25 O      4.618599    4.771370    7.946370    ( 0.0000,  0.0000,  0.0000)
  26 Ti     2.775043    4.775937    7.983327    ( 0.0000,  0.0000,  0.0000)
  27 Ti     8.215116    6.733658    8.263758    ( 0.0000,  0.0000,  0.0000)
  28 Ti     0.698994    6.682604    9.155328    ( 0.0000,  0.0000,  0.0000)
  29 Ti     6.091392    4.752901    9.031818    ( 0.0000,  0.0000,  0.0000)
  30 O      1.061195    4.769445    8.936857    ( 0.0000,  0.0000,  0.0000)
  31 O      6.347502    6.689180    8.953041    ( 0.0000,  0.0000,  0.0000)
  32 O      9.247434    6.689998    9.820961    ( 0.0000,  0.0000,  0.0000)
  33 O      7.814993    4.761002    8.270793    ( 0.0000,  0.0000,  0.0000)
  34 O      2.586823    6.648076    8.393045    ( 0.0000,  0.0000,  0.0000)
  35 O      1.056644    6.574160   11.104012    ( 0.0000,  0.0000,  0.0000)
  36 O      5.992690    4.752123   10.971899    ( 0.0000,  0.0000,  0.0000)
  37 Ti     4.376088    4.764199   12.289841    ( 0.0000,  0.0000,  0.0000)
  38 Ti     9.620987    6.677581   11.908586    ( 0.0000,  0.0000,  0.0000)
  39 Ti     2.035117    6.661384   12.869968    ( 0.0000,  0.0000,  0.0000)
  40 Ti     7.213795    4.774542   12.398121    ( 0.0000,  0.0000,  0.0000)
  41 O      2.535934    4.722789   12.969538    ( 0.0000,  0.0000,  0.0000)
  42 O      7.644092    6.639685   12.618100    ( 0.0000,  0.0000,  0.0000)
  43 O      0.300861    6.777684   13.451661    ( 0.0000,  0.0000,  0.0000)
  44 O      5.696878    4.767242   13.507177    ( 0.0000,  0.0000,  0.0000)
  45 O      9.147257    4.774231   11.889959    ( 0.0000,  0.0000,  0.0000)
  46 O      3.956196    6.566988   11.812881    ( 0.0000,  0.0000,  0.0000)
  47 O      9.979105   10.517481    7.368578    ( 0.0000,  0.0000,  0.0000)
  48 O      4.830067    8.585896    7.392832    ( 0.0000,  0.0000,  0.0000)
  49 Ti     2.946753    8.591607    8.221081    ( 0.0000,  0.0000,  0.0000)
  50 Ti     8.140942   10.565202    8.215386    ( 0.0000,  0.0000,  0.0000)
  51 Ti     0.700936   10.528217    9.050547    ( 0.0000,  0.0000,  0.0000)
  52 Ti     5.910228    8.594333    8.925511    ( 0.0000,  0.0000,  0.0000)
  53 O      1.119767    8.579194    8.959972    ( 0.0000,  0.0000,  0.0000)
  54 O      6.293288   10.509086    8.948589    ( 0.0000,  0.0000,  0.0000)
  55 O      9.251487   10.459366    9.758824    ( 0.0000,  0.0000,  0.0000)
  56 O      4.077357    8.568080    9.750910    ( 0.0000,  0.0000,  0.0000)
  57 O      7.783045    8.614152    8.310648    ( 0.0000,  0.0000,  0.0000)
  58 O      2.598407   10.487951    8.367711    ( 0.0000,  0.0000,  0.0000)
  59 O      1.057601   10.600364   11.050364    ( 0.0000,  0.0000,  0.0000)
  60 O      6.191668    8.588787   11.071626    ( 0.0000,  0.0000,  0.0000)
  61 Ti     4.289860    8.495175   11.649875    ( 0.0000,  0.0000,  0.0000)
  62 Ti     9.512649   10.543377   11.760438    ( 0.0000,  0.0000,  0.0000)
  63 Ti     2.078607   10.491343   12.601025    ( 0.0000,  0.0000,  0.0000)
  64 Ti     7.249573    8.569915   12.598544    ( 0.0000,  0.0000,  0.0000)
  65 O      2.496904    8.567706   12.413776    ( 0.0000,  0.0000,  0.0000)
  66 O      7.705429   10.530882   12.604215    ( 0.0000,  0.0000,  0.0000)
  67 O      0.273482   10.290677   13.375988    ( 0.0000,  0.0000,  0.0000)
  68 O      5.268186    8.522571   13.436446    ( 0.0000,  0.0000,  0.0000)
  69 O      9.053615    8.575119   11.857701    ( 0.0000,  0.0000,  0.0000)
  70 O      3.943837   10.501608   11.868640    ( 0.0000,  0.0000,  0.0000)
  71 O      9.951565   14.316478    7.412126    ( 0.0000,  0.0000,  0.0000)
  72 O      4.790439   12.403697    7.456106    ( 0.0000,  0.0000,  0.0000)
  73 Ti     3.040360   12.417444    8.304489    ( 0.0000,  0.0000,  0.0000)
  74 Ti     8.175322   14.351580    8.303673    ( 0.0000,  0.0000,  0.0000)
  75 Ti     0.678445   14.311272    8.962431    ( 0.0000,  0.0000,  0.0000)
  76 Ti     5.873121   12.443731    9.096660    ( 0.0000,  0.0000,  0.0000)
  77 O      1.095472   12.403928    8.923866    ( 0.0000,  0.0000,  0.0000)
  78 O      6.267805   14.327702    8.933474    ( 0.0000,  0.0000,  0.0000)
  79 O      9.249243   14.380319    9.837598    ( 0.0000,  0.0000,  0.0000)
  80 O      4.055140   12.450306    9.872991    ( 0.0000,  0.0000,  0.0000)
  81 O      7.776214   12.427244    8.385197    ( 0.0000,  0.0000,  0.0000)
  82 O      2.585637   14.320047    8.360858    ( 0.0000,  0.0000,  0.0000)
  83 O      1.111154   14.339126   10.999249    ( 0.0000,  0.0000,  0.0000)
  84 O      6.256680   12.475212   11.040534    ( 0.0000,  0.0000,  0.0000)
  85 Ti     4.383636   12.389505   11.979495    ( 0.0000,  0.0000,  0.0000)
  86 Ti     9.599153   14.337576   11.965807    ( 0.0000,  0.0000,  0.0000)
  87 Ti     2.049745   14.333925   12.511750    ( 0.0000,  0.0000,  0.0000)
  88 Ti     7.198506   12.437493   12.565956    ( 0.0000,  0.0000,  0.0000)
  89 O      2.539357   12.414329   12.766573    ( 0.0000,  0.0000,  0.0000)
  90 O      7.733692   14.326766   12.757575    ( 0.0000,  0.0000,  0.0000)
  91 O      0.420881   14.332086   13.386016    ( 0.0000,  0.0000,  0.0000)
  92 O      5.566185   12.339208   13.407308    ( 0.0000,  0.0000,  0.0000)
  93 O      9.188828   12.418923   11.893386    ( 0.0000,  0.0000,  0.0000)
  94 O      4.020375   14.335748   12.003612    ( 0.0000,  0.0000,  0.0000)
  95 V      3.976702    8.483842   14.729029    ( 0.0000,  0.0000,  0.0000)
  96 O      2.849829    9.996930   14.602707    ( 0.0000,  0.0000,  0.0000)
  97 O      3.029548    7.048577   14.497202    ( 0.0000,  0.0000,  0.0000)
  98 O      4.654739    8.434752   16.161065    ( 0.0000,  0.0000,  0.0000)
  99 V      9.581354    9.634983   14.895561    ( 0.0000,  0.0000,  0.0000)
 100 O      9.222266   11.045860   15.595277    ( 0.0000,  0.0000,  0.0000)
 101 O      7.923191    8.704349   14.544861    ( 0.0000,  0.0000,  0.0000)
 102 O     10.362644    8.771959   15.993863    ( 0.0000,  0.0000,  0.0000)
 103 H      7.596770    8.112478   15.244242    ( 0.0000,  0.0000,  0.0000)
 104 H      2.560285   10.487555   15.393396    ( 0.0000,  0.0000,  0.0000)

Unit cell:
           periodic     x           y           z      points  spacing
  1. axis:    yes   10.341746    0.000000    0.000000    54     0.1915
  2. axis:    yes   -0.000000   15.289380    0.000000    80     0.1911
  3. axis:    yes    0.000000    0.000000   23.497201   125     0.1880

  Lengths:  10.341746  15.289380  23.497201
  Angles:   90.000000  90.000000  90.000000

Effective grid spacing dv^(1/3) = 0.1902

                     log10-error:    total        iterations:
           time      wfs    density  energy       fermi  poisson
iter:   1  16:55:08  -4.18   +inf  -858.760908    3             
iter:   2  16:55:39  -5.07  -4.14  -858.760042    3             
iter:   3  16:56:10  -5.63  -4.20  -858.760252    2             
iter:   4  16:56:42  -5.59  -4.29  -858.759906    3             
iter:   5  16:57:13  -6.00  -4.40  -858.759969    2             
iter:   6  16:57:43  -6.36  -4.50  -858.760004    2             
iter:   7  16:58:14  -6.45  -4.59  -858.759917    2             
iter:   8  16:58:44  -7.11  -4.74  -858.759855    2             
iter:   9  16:59:15  -7.15  -4.81  -858.759989    2             
iter:  10  16:59:46  -7.27  -4.97  -858.759903    2             
iter:  11  17:00:16  -7.61  -5.10  -858.759920    2             

Converged after 11 iterations.

Dipole moment: (-3.833949, -1.972913, -1.172998) |e|*Ang

Energy contributions relative to reference atoms: (reference = -935653.237240)

Kinetic:       +620.011733
Potential:     -786.465915
External:        +0.000000
XC:            -698.408062
Entropy (-ST):   -0.519180
Local:           +6.361913
--------------------------
Free energy:   -859.019510
Extrapolated:  -858.759920

Fermi level: -1.33471

Showing all kpts
 Kpt  Band  Eigenvalues  Occupancy
  0   411     -2.88808    1.00000
  0   412     -1.27997    0.36646
  0   413     -1.23819    0.27584
  0   414     -1.18724    0.18623

  1   411     -2.88830    1.00000
  1   412     -1.27320    0.35090
  1   413     -1.24882    0.29757
  1   414     -1.18268    0.17942


