
  ___ ___ ___ _ _ _  
 |   |   |_  | | | | 
 | | | | | . | | | | 
 |__ |  _|___|_____|  1.5.1
 |___|_|             

User:   siva@s82n13.grendel.cscaa.dk
Date:   Fri May 24 21:05:42 2019
Arch:   x86_64
Pid:    17351
Python: 3.6.3
gpaw:   /home/siva/gpaw-1.5.1/gpaw
_gpaw:  /home/siva/gpaw-1.5.1/build/bin.linux-x86_64-3.6/gpaw-python
ase:    /home/siva/env1.5/lib/python3.6/site-packages/ase (version 3.17.0)
numpy:  /home/siva/env1.5/lib/python3.6/site-packages/numpy (version 1.16.0)
scipy:  /home/siva/env1.5/lib/python3.6/site-packages/scipy (version 1.2.0)
units:  Angstrom and eV
cores:  28
Extra parameters: {'blacs': True}

Input parameters:
  basis: dzp
  kpts: [3 3 1]
  mode: {ecut: 500.0,
         gammacentered: False,
         name: pw}
  xc: PBE

System changes: positions, numbers, cell, pbc, initial_charges, initial_magmoms 

Initialize ...

O-setup:
  name: Oxygen
  id: 32ecd46bf208036f09c70b0ec9a88b78
  Z: 8
  valence: 6
  core: 2
  charge: 0.0
  file: /home/wido/sw/gpaw/basis/gpaw-setups-0.9.20000/O.PBE.gz
  cutoffs: 0.67(comp), 1.17(filt), 0.83(core), lmax=2
  valence states:
                energy  radius
    2s(2.00)   -23.961   0.688
    2p(4.00)    -9.029   0.598
    *s           3.251   0.688
    *p          18.182   0.598
    *d           0.000   0.619

  LCAO basis set for O:
    Name: dzp
    File: /home/wido/sw/gpaw/basis/gpaw-setups-0.9.20000/O.dzp.basis.gz
    Number of radial functions: 5
    Number of spherical harmonics: 13
      l=0, rc=4.3438 Bohr: 2s-sz confined orbital
      l=1, rc=5.3906 Bohr: 2p-sz confined orbital
      l=0, rc=2.2969 Bohr: 2s-dz split-valence wave
      l=1, rc=2.8906 Bohr: 2p-dz split-valence wave
      l=2, rc=5.3906 Bohr: d-type Gaussian polarization

Ti-setup:
  name: Titanium
  id: d282db07e62ae71292040bf25b25ccdd
  Z: 22
  valence: 12
  core: 10
  charge: 0.0
  file: /home/wido/sw/gpaw/basis/gpaw-setups-0.9.20000/Ti.PBE.gz
  cutoffs: 1.22(comp), 2.23(filt), 1.02(core), lmax=2
  valence states:
                energy  radius
    3s(2.00)   -62.623   1.270
    4s(2.00)    -4.466   1.270
    3p(6.00)   -38.862   1.058
    4p(0.00)    -1.466   1.058
    3d(2.00)    -4.258   1.058
    *d          22.953   1.058

  LCAO basis set for Ti:
    Name: dzp
    File: /home/wido/sw/gpaw/basis/gpaw-setups-0.9.20000/Ti.dzp.basis.gz
    Number of radial functions: 11
    Number of spherical harmonics: 29
      l=0, rc=3.4375 Bohr: 3s-sz confined orbital
      l=0, rc=9.9062 Bohr: 4s-sz confined orbital
      l=1, rc=3.8906 Bohr: 3p-sz confined orbital
      l=1, rc=13.1094 Bohr: 4p-sz confined orbital
      l=2, rc=6.6250 Bohr: 3d-sz confined orbital
      l=0, rc=2.1406 Bohr: 3s-dz split-valence wave
      l=0, rc=6.0156 Bohr: 4s-dz split-valence wave
      l=1, rc=2.3125 Bohr: 3p-dz split-valence wave
      l=1, rc=8.1094 Bohr: 4p-dz split-valence wave
      l=2, rc=3.8594 Bohr: 3d-dz split-valence wave
      l=1, rc=9.9062 Bohr: p-type Gaussian polarization

V-setup:
  name: Vanadium
  id: a8354638d66c808f8c867a10b63fd727
  Z: 23
  valence: 13
  core: 10
  charge: 0.0
  file: /home/wido/sw/gpaw/basis/gpaw-setups-0.9.20000/V.PBE.gz
  cutoffs: 1.19(comp), 2.14(filt), 0.96(core), lmax=2
  valence states:
                energy  radius
    3s(2.00)   -70.222   1.254
    4s(2.00)    -4.702   1.254
    3p(6.00)   -44.043   1.281
    4p(0.00)    -1.444   1.281
    3d(3.00)    -5.164   1.169
    *d          22.047   1.169

  LCAO basis set for V:
    Name: dzp
    File: /home/wido/sw/gpaw/basis/gpaw-setups-0.9.20000/V.dzp.basis.gz
    Number of radial functions: 11
    Number of spherical harmonics: 29
      l=0, rc=3.2656 Bohr: 3s-sz confined orbital
      l=0, rc=9.5312 Bohr: 4s-sz confined orbital
      l=1, rc=3.6719 Bohr: 3p-sz confined orbital
      l=1, rc=12.8750 Bohr: 4p-sz confined orbital
      l=2, rc=6.0938 Bohr: 3d-sz confined orbital
      l=0, rc=2.0625 Bohr: 3s-dz split-valence wave
      l=0, rc=5.7656 Bohr: 4s-dz split-valence wave
      l=1, rc=2.4062 Bohr: 3p-dz split-valence wave
      l=1, rc=7.8906 Bohr: 4p-dz split-valence wave
      l=2, rc=3.6562 Bohr: 3d-dz split-valence wave
      l=1, rc=9.5312 Bohr: p-type Gaussian polarization

H-setup:
  name: Hydrogen
  id: d65de229564ff8ea4db303e23b6d1ecf
  Z: 1
  valence: 1
  core: 0
  charge: 0.0
  file: /home/wido/sw/gpaw/basis/gpaw-setups-0.9.20000/H.PBE.gz
  cutoffs: 0.48(comp), 0.85(filt), 0.53(core), lmax=2
  valence states:
                energy  radius
    1s(1.00)    -6.494   0.476
    *s          20.717   0.476
    *p           0.000   0.476

  LCAO basis set for H:
    Name: dzp
    File: /home/wido/sw/gpaw/basis/gpaw-setups-0.9.20000/H.dzp.basis.gz
    Number of radial functions: 3
    Number of spherical harmonics: 5
      l=0, rc=6.4219 Bohr: 1s-sz confined orbital
      l=0, rc=3.6094 Bohr: 1s-dz split-valence wave
      l=1, rc=6.4219 Bohr: p-type Gaussian polarization

Reference energy: -1046916.965077

Spin-paired calculation

Occupation numbers:
  Fermi-Dirac: width=0.1000 eV

Convergence criteria:
  Maximum total energy change: 0.0005 eV / electron
  Maximum integral of absolute density change: 0.0001 electrons
  Maximum integral of absolute eigenstate change: 4e-08 eV^2
  Maximum number of iterations: 333

Symmetries present (total): 1

  ( 1  0  0)
  ( 0  1  0)
  ( 0  0  1)

9 k-points: 3 x 3 x 1 Monkhorst-Pack grid
5 k-points in the irreducible part of the Brillouin zone
       k-points in crystal coordinates                weights
   0:     0.00000000    0.00000000    0.00000000          1/9
   1:     0.00000000    0.33333333    0.00000000          2/9
   2:     0.33333333   -0.33333333    0.00000000          2/9
   3:     0.33333333    0.00000000    0.00000000          2/9
   4:     0.33333333    0.33333333    0.00000000          2/9

Wave functions: Plane wave expansion
  Cutoff energy: 500.000 eV
  Number of coefficients (min, max): 70673, 70768
  Pulay-stress correction: 0.000000 eV/Ang^3 (de/decut=0.000000)
  Using FFTW library
  ScaLapack parameters: grid=1x1, blocksize=None
  Wavefunction extrapolation:
    Improved wavefunction reuse through dual PAW basis 

Eigensolver
   Davidson(niter=2, smin=None, normalize=True) 

Densities:
  Coarse grid: 54*60*125 grid
  Fine grid: 108*120*250 grid
  Total Charge: 0.000000 

Density mixing:
  Method: separate
  Backend: pulay
  Linear mixing parameter: 0.05
  Mixing with 5 old densities
  Damping of long wave oscillations: 50 

Hamiltonian:
  XC and Coulomb potentials evaluated on a 108*120*250 grid
  Using the PBE Exchange-Correlation functional
 

XC parameters: PBE with 2 nearest neighbor stencil

Memory estimate:
  Process memory now: 274.68 MiB
  Calculator: 3721.44 MiB
    Density: 8.90 MiB
      Arrays: 2.89 MiB
      Localized functions: 4.89 MiB
      Mixer: 1.11 MiB
    Hamiltonian: 2.03 MiB
      Arrays: 1.89 MiB
      XC: 0.00 MiB
      Poisson: 0.00 MiB
      vbar: 0.14 MiB
    Wavefunctions: 3710.51 MiB
      Arrays psit_nG: 3028.93 MiB
      Eigensolver: 659.23 MiB
      Projections: 2.61 MiB
      Projectors: 2.80 MiB
      PW-descriptor: 16.94 MiB

Total number of cores used: 28
Domain decomposition: 2 x 2 x 7

Number of atoms: 118
Number of atomic orbitals: 2126
Number of bands in calculation: 561
Bands to converge: occupied states only
Number of valence electrons: 928

... initialized

Initializing position-dependent things.

Density initialized from atomic densities
Creating initial wave functions:
  561 bands from LCAO basis set

                                               
                                               
                                               
                                               
                                               
                         O                     
                                               
                        O V                    
             O   H            O                
                HOi   O Vi     O               
          O      O    O     OTi     Ti         
               Ti     Oi     O    O            
               O    O     OTi    TiO           
        O   O      Ti      O   O               
            Tii  OO OO  OTiO   Tii             
             O          Ti    O  O   O         
          OTi     Oi   O O   O                 
           O    O     OTi     Oi               
         Ti     Oi     OO   O     O Ti         
         O    OO    OTii    Tii     O          
              Tii     O  O O    OOTi           
             O    OOTi    TO     O             
            TO     O    O      Ti              
          O      OTi    Ti                     
          Ti          O      O O               
               O                               
                                               
                                               
                                               
                                               

Positions:
   0 O      8.476572    1.911173    6.000000    ( 0.0000,  0.0000,  0.0000)
   1 O      3.305699    0.000000    6.000000    ( 0.0000,  0.0000,  0.0000)
   2 Ti     1.412752    0.000000    6.752957    ( 0.0000,  0.0000,  0.0000)
   3 Ti     6.583625    1.911173    6.752957    ( 0.0000,  0.0000,  0.0000)
   4 Ti     9.522250    1.911173    7.640878    ( 0.0000,  0.0000,  0.0000)
   5 Ti     4.351376    0.000000    7.640878    ( 0.0000,  0.0000,  0.0000)
   6 O      9.861551    0.000000    7.505914    ( 0.0000,  0.0000,  0.0000)
   7 O      4.690678    1.911173    7.505914    ( 0.0000,  0.0000,  0.0000)
   8 O      7.629303    1.911173    8.393834    ( 0.0000,  0.0000,  0.0000)
   9 O      2.458430    0.000000    8.393834    ( 0.0000,  0.0000,  0.0000)
  10 O      6.244323    0.000000    6.887921    ( 0.0000,  0.0000,  0.0000)
  11 O      1.073450    1.911173    6.887921    ( 0.0000,  0.0000,  0.0000)
  12 O      9.802430    1.914808    9.579456    ( 0.0000,  0.0000,  0.0000)
  13 O      4.639553   -0.000496    9.580770    ( 0.0000,  0.0000,  0.0000)
  14 Ti     2.746873    0.003277   10.390569    ( 0.0000,  0.0000,  0.0000)
  15 Ti     7.928472    1.906517   10.390024    ( 0.0000,  0.0000,  0.0000)
  16 Ti     0.491608    1.929659   11.116285    ( 0.0000,  0.0000,  0.0000)
  17 Ti     5.645538    0.008624   11.130235    ( 0.0000,  0.0000,  0.0000)
  18 O      0.910619    0.003233   11.075733    ( 0.0000,  0.0000,  0.0000)
  19 O      6.077706    1.915192   11.090261    ( 0.0000,  0.0000,  0.0000)
  20 O      9.037958    1.919770   11.941749    ( 0.0000,  0.0000,  0.0000)
  21 O      3.855292    0.011027   11.944245    ( 0.0000,  0.0000,  0.0000)
  22 O      7.550927    0.001781   10.449439    ( 0.0000,  0.0000,  0.0000)
  23 O      2.387625    1.923585   10.445854    ( 0.0000,  0.0000,  0.0000)
  24 O      0.945208    1.911262   13.071604    ( 0.0000,  0.0000,  0.0000)
  25 O      6.099314   -0.006838   13.073930    ( 0.0000,  0.0000,  0.0000)
  26 Ti     4.207055   11.421603   14.022229    ( 0.0000,  0.0000,  0.0000)
  27 Ti     9.416799    1.864792   14.013476    ( 0.0000,  0.0000,  0.0000)
  28 Ti     1.866053    1.926630   14.593918    ( 0.0000,  0.0000,  0.0000)
  29 Ti     7.001658    0.011084   14.603374    ( 0.0000,  0.0000,  0.0000)
  30 O      2.391632    0.008444   14.810343    ( 0.0000,  0.0000,  0.0000)
  31 O      7.571875    1.861520   14.785685    ( 0.0000,  0.0000,  0.0000)
  32 O      0.235145    1.903570   15.447474    ( 0.0000,  0.0000,  0.0000)
  33 O      5.392232   -0.005517   15.453113    ( 0.0000,  0.0000,  0.0000)
  34 O      9.057484    0.007829   13.939541    ( 0.0000,  0.0000,  0.0000)
  35 O      3.849953    1.926420   13.963840    ( 0.0000,  0.0000,  0.0000)
  36 O      8.476572    5.733518    6.000000    ( 0.0000,  0.0000,  0.0000)
  37 O      3.305699    3.822345    6.000000    ( 0.0000,  0.0000,  0.0000)
  38 Ti     1.412752    3.822345    6.752957    ( 0.0000,  0.0000,  0.0000)
  39 Ti     6.583625    5.733518    6.752957    ( 0.0000,  0.0000,  0.0000)
  40 Ti     9.522250    5.733518    7.640878    ( 0.0000,  0.0000,  0.0000)
  41 Ti     4.351376    3.822345    7.640878    ( 0.0000,  0.0000,  0.0000)
  42 O      9.861551    3.822345    7.505914    ( 0.0000,  0.0000,  0.0000)
  43 O      4.690678    5.733518    7.505914    ( 0.0000,  0.0000,  0.0000)
  44 O      7.629303    5.733518    8.393834    ( 0.0000,  0.0000,  0.0000)
  45 O      2.458430    3.822345    8.393834    ( 0.0000,  0.0000,  0.0000)
  46 O      6.244323    3.822345    6.887921    ( 0.0000,  0.0000,  0.0000)
  47 O      1.073450    5.733518    6.887921    ( 0.0000,  0.0000,  0.0000)
  48 O      9.800295    5.735389    9.588519    ( 0.0000,  0.0000,  0.0000)
  49 O      4.643680    3.824768    9.617868    ( 0.0000,  0.0000,  0.0000)
  50 Ti     2.783634    3.825816   10.336944    ( 0.0000,  0.0000,  0.0000)
  51 Ti     7.948925    5.740920   10.372538    ( 0.0000,  0.0000,  0.0000)
  52 Ti     0.516271    5.733527   11.153261    ( 0.0000,  0.0000,  0.0000)
  53 Ti     5.699021    3.834915   11.221699    ( 0.0000,  0.0000,  0.0000)
  54 O      0.905237    3.826406   11.076338    ( 0.0000,  0.0000,  0.0000)
  55 O      6.076321    5.734986   11.118104    ( 0.0000,  0.0000,  0.0000)
  56 O      9.044459    5.736302   11.947340    ( 0.0000,  0.0000,  0.0000)
  57 O      3.842468    3.838471   11.967207    ( 0.0000,  0.0000,  0.0000)
  58 O      7.540881    3.830636   10.461450    ( 0.0000,  0.0000,  0.0000)
  59 O      2.391295    5.736346   10.445261    ( 0.0000,  0.0000,  0.0000)
  60 O      0.966771    5.735199   13.089548    ( 0.0000,  0.0000,  0.0000)
  61 O      6.035951    3.754442   13.226654    ( 0.0000,  0.0000,  0.0000)
  62 Ti     4.207197    3.784270   13.882645    ( 0.0000,  0.0000,  0.0000)
  63 Ti     9.403314    5.735755   13.956393    ( 0.0000,  0.0000,  0.0000)
  64 Ti     1.854659    5.736102   14.692466    ( 0.0000,  0.0000,  0.0000)
  65 Ti     7.229750    3.815451   14.800491    ( 0.0000,  0.0000,  0.0000)
  66 O      2.360701    3.809032   14.800567    ( 0.0000,  0.0000,  0.0000)
  67 O      7.544551    5.737552   14.596530    ( 0.0000,  0.0000,  0.0000)
  68 O      0.178348    5.742627   15.434782    ( 0.0000,  0.0000,  0.0000)
  69 O      5.206428    3.950808   15.600906    ( 0.0000,  0.0000,  0.0000)
  70 O      8.992375    3.807438   13.978289    ( 0.0000,  0.0000,  0.0000)
  71 O      3.831685    5.749037   13.944474    ( 0.0000,  0.0000,  0.0000)
  72 O      8.476572    9.555862    6.000000    ( 0.0000,  0.0000,  0.0000)
  73 O      3.305699    7.644690    6.000000    ( 0.0000,  0.0000,  0.0000)
  74 Ti     1.412752    7.644690    6.752957    ( 0.0000,  0.0000,  0.0000)
  75 Ti     6.583625    9.555862    6.752957    ( 0.0000,  0.0000,  0.0000)
  76 Ti     9.522250    9.555862    7.640878    ( 0.0000,  0.0000,  0.0000)
  77 Ti     4.351376    7.644690    7.640878    ( 0.0000,  0.0000,  0.0000)
  78 O      9.861551    7.644690    7.505914    ( 0.0000,  0.0000,  0.0000)
  79 O      4.690678    9.555862    7.505914    ( 0.0000,  0.0000,  0.0000)
  80 O      7.629303    9.555862    8.393834    ( 0.0000,  0.0000,  0.0000)
  81 O      2.458430    7.644690    8.393834    ( 0.0000,  0.0000,  0.0000)
  82 O      6.244323    7.644690    6.887921    ( 0.0000,  0.0000,  0.0000)
  83 O      1.073450    9.555862    6.887921    ( 0.0000,  0.0000,  0.0000)
  84 O      9.803224    9.555502    9.579220    ( 0.0000,  0.0000,  0.0000)
  85 O      4.644570    7.641089    9.617572    ( 0.0000,  0.0000,  0.0000)
  86 Ti     2.785741    7.647734   10.341076    ( 0.0000,  0.0000,  0.0000)
  87 Ti     7.930369    9.565422   10.392509    ( 0.0000,  0.0000,  0.0000)
  88 Ti     0.492103    9.537521   11.115563    ( 0.0000,  0.0000,  0.0000)
  89 Ti     5.691449    7.651732   11.226668    ( 0.0000,  0.0000,  0.0000)
  90 O      0.905192    7.645399   11.078036    ( 0.0000,  0.0000,  0.0000)
  91 O      6.077572    9.552496   11.091544    ( 0.0000,  0.0000,  0.0000)
  92 O      9.037994    9.557514   11.941376    ( 0.0000,  0.0000,  0.0000)
  93 O      3.845692    7.652247   11.965171    ( 0.0000,  0.0000,  0.0000)
  94 O      7.543765    7.640236   10.461663    ( 0.0000,  0.0000,  0.0000)
  95 O      2.386929    9.549981   10.446332    ( 0.0000,  0.0000,  0.0000)
  96 O      0.943753    9.563853   13.071041    ( 0.0000,  0.0000,  0.0000)
  97 O      6.037246    7.688243   13.230191    ( 0.0000,  0.0000,  0.0000)
  98 Ti     4.207097    7.582172   13.898966    ( 0.0000,  0.0000,  0.0000)
  99 Ti     9.424338    9.619612   14.017110    ( 0.0000,  0.0000,  0.0000)
 100 Ti     1.874073    9.550217   14.588325    ( 0.0000,  0.0000,  0.0000)
 101 Ti     7.237321    7.684039   14.792721    ( 0.0000,  0.0000,  0.0000)
 102 O      2.360218    7.669659   14.801155    ( 0.0000,  0.0000,  0.0000)
 103 O      7.576279    9.621362   14.786971    ( 0.0000,  0.0000,  0.0000)
 104 O      0.240873    9.589568   15.447356    ( 0.0000,  0.0000,  0.0000)
 105 O      5.197394    7.633199   15.614919    ( 0.0000,  0.0000,  0.0000)
 106 O      8.990616    7.674961   13.975909    ( 0.0000,  0.0000,  0.0000)
 107 O      3.843639    9.568233   13.958812    ( 0.0000,  0.0000,  0.0000)
 108 V      5.873689    4.110926   17.256054    ( 0.0000,  0.0000,  0.0000)
 109 V      5.880305    7.416759   17.257481    ( 0.0000,  0.0000,  0.0000)
 110 O      2.749456    5.737418   16.765922    ( 0.0000,  0.0000,  0.0000)
 111 O      5.394318    8.550451   18.281344    ( 0.0000,  0.0000,  0.0000)
 112 O      5.587746    5.763419   17.901184    ( 0.0000,  0.0000,  0.0000)
 113 O      5.359876    2.985986   18.275542    ( 0.0000,  0.0000,  0.0000)
 114 O      7.518657    3.848947   16.697961    ( 0.0000,  0.0000,  0.0000)
 115 O      7.529841    7.619878   16.692462    ( 0.0000,  0.0000,  0.0000)
 116 H      2.480747    6.521596   17.300839    ( 0.0000,  0.0000,  0.0000)
 117 H      2.480681    4.956003   17.304983    ( 0.0000,  0.0000,  0.0000)

Unit cell:
           periodic     x           y           z      points  spacing
  1. axis:    yes   10.341746    0.000000    0.000000    54     0.1915
  2. axis:    yes   -0.000000   11.467000    0.000000    60     0.1911
  3. axis:    no     0.000000    0.000000   23.497201   125     0.1880

  Lengths:  10.341746  11.467000  23.497201
  Angles:   90.000000  90.000000  90.000000

Effective grid spacing dv^(1/3) = 0.1902

                     log10-error:    total        iterations:
           time      wfs    density  energy       fermi  poisson
iter:   1  21:09:54  -0.12   +inf  -1107.585766    8             
iter:   2  21:10:50  -1.03  -0.96  -1060.401418    2             
iter:   3  21:11:47  +0.44  -1.00  -965.748633    6             
iter:   4  21:12:43  -0.98  -1.35  -978.239312    4             
iter:   5  21:13:39  -1.08  -1.28  -995.717318    3             
iter:   6  21:14:35  -0.10  -1.25  -985.437072    5             
iter:   7  21:15:32  -0.68  -1.65  -983.027722    4             
iter:   8  21:16:28  -1.43  -1.63  -975.059602    2             
iter:   9  21:17:24  -1.06  -1.76  -971.123906    2             
iter:  10  21:18:20  -1.90  -2.11  -972.298188    3             
iter:  11  21:19:17  -2.43  -2.03  -971.416003    3             
iter:  12  21:20:13  -1.81  -2.15  -970.761163    2             
iter:  13  21:21:09  -2.40  -2.27  -970.710717    2             
iter:  14  21:22:05  -2.37  -2.35  -970.697734    3             
iter:  15  21:23:02  -3.10  -2.54  -970.653285    2             
iter:  16  21:23:58  -3.47  -2.60  -970.651812    2             
iter:  17  21:24:54  -2.83  -2.70  -970.688528    2             
iter:  18  21:25:50  -3.61  -2.76  -970.640355    2             
iter:  19  21:26:47  -3.80  -2.94  -970.636546    2             
iter:  20  21:27:43  -4.30  -3.00  -970.633803    2             
iter:  21  21:28:39  -3.61  -3.19  -970.637552    2             
iter:  22  21:29:35  -4.23  -3.38  -970.633003    2             
iter:  23  21:30:32  -4.72  -3.53  -970.632485    2             
iter:  24  21:31:28  -5.12  -3.47  -970.632307    1             
iter:  25  21:32:24  -5.89  -3.56  -970.632272    2             
iter:  26  21:33:20  -5.06  -3.61  -970.632530    2             
iter:  27  21:34:17  -4.94  -3.79  -970.632655    2             
iter:  28  21:35:13  -5.67  -4.00  -970.632436    1             
iter:  29  21:36:09  -6.17  -4.06  -970.632429    1             
iter:  30  21:37:06  -5.96  -4.08  -970.632426    1             
iter:  31  21:38:02  -5.42  -4.22  -970.632495    1             
iter:  32  21:38:58  -6.69  -4.27  -970.632438    1             
iter:  33  21:39:54  -7.54  -4.34  -970.632426    1             

Converged after 33 iterations.

Dipole moment: (-18.674328, -0.670599, -0.999967) |e|*Ang

Energy contributions relative to reference atoms: (reference = -1046916.965077)

Kinetic:       +700.683070
Potential:     -891.710828
External:        +0.000000
XC:            -787.297960
Entropy (-ST):   -0.000509
Local:           +7.693545
--------------------------
Free energy:   -970.632681
Extrapolated:  -970.632426

Fermi level: -0.61767

Showing only first 2 kpts
 Kpt  Band  Eigenvalues  Occupancy
  0   462     -1.68429    0.22222
  0   463     -1.68135    0.22222
  0   464      0.23643    0.00004
  0   465      0.36570    0.00001

  1   462     -1.69838    0.44444
  1   463     -1.67131    0.44443
  1   464      0.42775    0.00001
  1   465      0.50519    0.00001



Forces in eV/Ang:
  0 O    -1.90010    0.00745    1.56007
  1 O    -1.91495    0.00070    1.55328
  2 Ti    3.84535   -0.00567    1.97061
  3 Ti    3.85302   -0.04011    1.97341
  4 Ti   -1.96479   -0.04038   -2.07130
  5 Ti   -1.89626   -0.00666   -2.01315
  6 O     0.90016    0.00706   -0.19574
  7 O     0.85055    0.08175   -0.18075
  8 O    -0.65994    0.02100   -0.58218
  9 O    -0.66420    0.00739   -0.60892
 10 O    -0.28340    0.00654   -0.87014
 11 O    -0.24151    0.09377   -0.86347
 12 O    -0.14890    0.00304    0.00298
 13 O    -0.19483   -0.00126    0.00835
 14 Ti    0.04926   -0.00141   -0.11919
 15 Ti    0.02447    0.01923   -0.09451
 16 Ti    0.07635   -0.02741    0.08859
 17 Ti    0.10086   -0.01105    0.07158
 18 O     0.11964   -0.00409   -0.08977
 19 O     0.12722    0.00103   -0.04935
 20 O     0.03452    0.00125    0.10148
 21 O     0.00825   -0.00154    0.10928
 22 O    -0.01003    0.00152    0.08785
 23 O     0.02247   -0.01292    0.04815
 24 O    -0.11546    0.00109    0.00153
 25 O    -0.07196    0.01892    0.00535
 26 Ti    0.00004    0.10491   -0.18324
 27 Ti   -0.02764    0.08478   -0.17233
 28 Ti    0.18759   -0.03331   -0.00578
 29 Ti    0.18868   -0.01871   -0.03140
 30 O     0.05736   -0.00177    0.10795
 31 O     0.10456    0.03583   -0.02814
 32 O     0.03555   -0.01256    0.07123
 33 O     0.01617   -0.00102    0.09100
 34 O    -0.12114    0.00126    0.10669
 35 O    -0.23477   -0.10395    0.22822
 36 O    -1.91233   -0.00051    1.56239
 37 O    -1.89308    0.00673    1.61346
 38 Ti    3.65777   -0.05081    1.80320
 39 Ti    3.83274    0.00701    1.93085
 40 Ti   -1.89008    0.00376   -1.89837
 41 Ti   -1.61978   -0.04145   -1.71739
 42 O     0.94636    0.02605   -0.21415
 43 O     0.83752   -0.00745   -0.17768
 44 O    -0.67989    0.00191   -0.64875
 45 O    -0.63207    0.01786   -0.61906
 46 O    -0.32753    0.03491   -0.86175
 47 O    -0.22897   -0.00920   -0.88322
 48 O    -0.11008    0.00141    0.02454
 49 O    -0.14000    0.00286    0.01258
 50 Ti   -0.01347   -0.00309    0.00671
 51 Ti   -0.02080   -0.01527   -0.07379
 52 Ti    0.06198    0.00805    0.05122
 53 Ti    0.02540   -0.02850    0.08055
 54 O     0.17521    0.01542   -0.11096
 55 O     0.17325    0.02069    0.05290
 56 O     0.06473    0.00669    0.05856
 57 O     0.01364    0.01044    0.10364
 58 O    -0.00662   -0.00748    0.11912
 59 O     0.02596   -0.00064    0.00129
 60 O    -0.24773    0.00213    0.02607
 61 O     0.01333    0.00825   -0.16322
 62 Ti   -0.08057    0.09477    0.07960
 63 Ti    0.02836    0.01999   -0.15285
 64 Ti    0.24688    0.00039    0.05122
 65 Ti   -0.09436   -0.02177   -0.03639
 66 O     0.03497    0.02189    0.00671
 67 O    -0.07637    0.03479    0.25120
 68 O    -0.09738   -0.00006    0.01903
 69 O     0.21432   -0.08347   -0.06681
 70 O    -0.08742   -0.04752    0.20519
 71 O    -0.24852   -0.10760    0.10101
 72 O    -1.89769   -0.00625    1.55767
 73 O    -1.89024   -0.00804    1.60839
 74 Ti    3.67624    0.05851    1.82225
 75 Ti    3.86216    0.03537    1.98452
 76 Ti   -1.97601    0.03415   -2.07510
 77 Ti   -1.64118    0.04456   -1.71022
 78 O     0.94257   -0.02600   -0.21396
 79 O     0.84943   -0.07645   -0.18100
 80 O    -0.65632   -0.01447   -0.58448
 81 O    -0.62800   -0.00469   -0.61818
 82 O    -0.32469   -0.04157   -0.86244
 83 O    -0.24147   -0.08460   -0.86495
 84 O    -0.15384   -0.00413    0.00430
 85 O    -0.14395   -0.00024    0.00395
 86 Ti   -0.01258   -0.00156   -0.00845
 87 Ti    0.01781   -0.01948   -0.11027
 88 Ti    0.07763    0.04105    0.08645
 89 Ti    0.04927   -0.00143    0.06699
 90 O     0.17712   -0.01936   -0.11394
 91 O     0.13211    0.04307   -0.04581
 92 O     0.03771    0.00092    0.10030
 93 O     0.00191    0.00439    0.12737
 94 O    -0.01510    0.01950    0.12963
 95 O     0.02496    0.01169    0.04812
 96 O    -0.10585    0.00182   -0.00507
 97 O    -0.00172   -0.00178   -0.14174
 98 Ti   -0.08652    0.13120    0.04705
 99 Ti   -0.02946   -0.08455   -0.18740
100 Ti    0.17829    0.04245    0.00616
101 Ti   -0.10734   -0.01478   -0.01823
102 O     0.03544   -0.02682    0.01107
103 O     0.10658   -0.02374   -0.02067
104 O     0.03282    0.00261    0.06791
105 O     0.24184   -0.04587   -0.08089
106 O    -0.06882    0.04816    0.20789
107 O    -0.25486   -0.07400    0.18839
108 V    -0.00695   -0.13598    0.11720
109 V    -0.02411    0.13124    0.11101
110 O    -0.43492    0.00133    0.53780
111 O     0.06650   -0.16848   -0.15400
112 O    -0.00875    0.03168    0.14621
113 O     0.02888    0.19601   -0.19109
114 O    -0.16242    0.06071   -0.07469
115 O    -0.17294   -0.00412   -0.09390
116 H     0.10168   -0.31961   -0.23238
117 H     0.10542    0.31731   -0.23870

System changes: positions 

Initializing position-dependent things.

Density initialized from wave functions
                                               
                                               
                                               
                                               
                                               
                         O                     
                                               
                        O V                    
             O   H            O                
                HOi   O Vi     O               
          O      O    O     OTi     Ti         
               Ti     Oi     O    O            
               O    O     OTi    TiO           
        O   O      Ti      O   O               
            Tii  OO OO  OTiO   Tii             
             O          Ti    O  O   O         
          OTi     Oi   O O   O                 
           O    O     OTi     Oi               
         Ti     Oi     OO   O     O Ti         
         O    OO    OTii    Tii     O          
              Tii     O  O O    OOTi           
             O    OOTi    TO     O             
            TO     O    O      Ti              
          O      OTi    Ti                     
          Ti          O      O O               
               O                               
                                               
                                               
                                               
                                               

Positions:
   0 O      8.476572    1.911173    6.000000    ( 0.0000,  0.0000,  0.0000)
   1 O      3.305699    0.000000    6.000000    ( 0.0000,  0.0000,  0.0000)
   2 Ti     1.412752    0.000000    6.752957    ( 0.0000,  0.0000,  0.0000)
   3 Ti     6.583625    1.911173    6.752957    ( 0.0000,  0.0000,  0.0000)
   4 Ti     9.522250    1.911173    7.640878    ( 0.0000,  0.0000,  0.0000)
   5 Ti     4.351376    0.000000    7.640878    ( 0.0000,  0.0000,  0.0000)
   6 O      9.861551    0.000000    7.505914    ( 0.0000,  0.0000,  0.0000)
   7 O      4.690678    1.911173    7.505914    ( 0.0000,  0.0000,  0.0000)
   8 O      7.629303    1.911173    8.393834    ( 0.0000,  0.0000,  0.0000)
   9 O      2.458430    0.000000    8.393834    ( 0.0000,  0.0000,  0.0000)
  10 O      6.244323    0.000000    6.887921    ( 0.0000,  0.0000,  0.0000)
  11 O      1.073450    1.911173    6.887921    ( 0.0000,  0.0000,  0.0000)
  12 O      9.800303    1.914852    9.579498    ( 0.0000,  0.0000,  0.0000)
  13 O      4.636770   -0.000514    9.580889    ( 0.0000,  0.0000,  0.0000)
  14 Ti     2.747577    0.003257   10.388866    ( 0.0000,  0.0000,  0.0000)
  15 Ti     7.928822    1.906792   10.388674    ( 0.0000,  0.0000,  0.0000)
  16 Ti     0.492698    1.929267   11.117551    ( 0.0000,  0.0000,  0.0000)
  17 Ti     5.646979    0.008466   11.131257    ( 0.0000,  0.0000,  0.0000)
  18 O      0.912328    0.003175   11.074450    ( 0.0000,  0.0000,  0.0000)
  19 O      6.079523    1.915206   11.089556    ( 0.0000,  0.0000,  0.0000)
  20 O      9.038451    1.919788   11.943199    ( 0.0000,  0.0000,  0.0000)
  21 O      3.855410    0.011005   11.945806    ( 0.0000,  0.0000,  0.0000)
  22 O      7.550784    0.001803   10.450694    ( 0.0000,  0.0000,  0.0000)
  23 O      2.387946    1.923400   10.446542    ( 0.0000,  0.0000,  0.0000)
  24 O      0.943559    1.911278   13.071626    ( 0.0000,  0.0000,  0.0000)
  25 O      6.098286   -0.006567   13.074006    ( 0.0000,  0.0000,  0.0000)
  26 Ti     4.207055   11.423101   14.019611    ( 0.0000,  0.0000,  0.0000)
  27 Ti     9.416404    1.866004   14.011014    ( 0.0000,  0.0000,  0.0000)
  28 Ti     1.868733    1.926154   14.593836    ( 0.0000,  0.0000,  0.0000)
  29 Ti     7.004354    0.010816   14.602926    ( 0.0000,  0.0000,  0.0000)
  30 O      2.392451    0.008418   14.811885    ( 0.0000,  0.0000,  0.0000)
  31 O      7.573368    1.862032   14.785283    ( 0.0000,  0.0000,  0.0000)
  32 O      0.235652    1.903391   15.448491    ( 0.0000,  0.0000,  0.0000)
  33 O      5.392463   -0.005532   15.454413    ( 0.0000,  0.0000,  0.0000)
  34 O      9.055753    0.007847   13.941065    ( 0.0000,  0.0000,  0.0000)
  35 O      3.846599    1.924935   13.967100    ( 0.0000,  0.0000,  0.0000)
  36 O      8.476572    5.733518    6.000000    ( 0.0000,  0.0000,  0.0000)
  37 O      3.305699    3.822345    6.000000    ( 0.0000,  0.0000,  0.0000)
  38 Ti     1.412752    3.822345    6.752957    ( 0.0000,  0.0000,  0.0000)
  39 Ti     6.583625    5.733518    6.752957    ( 0.0000,  0.0000,  0.0000)
  40 Ti     9.522250    5.733518    7.640878    ( 0.0000,  0.0000,  0.0000)
  41 Ti     4.351376    3.822345    7.640878    ( 0.0000,  0.0000,  0.0000)
  42 O      9.861551    3.822345    7.505914    ( 0.0000,  0.0000,  0.0000)
  43 O      4.690678    5.733518    7.505914    ( 0.0000,  0.0000,  0.0000)
  44 O      7.629303    5.733518    8.393834    ( 0.0000,  0.0000,  0.0000)
  45 O      2.458430    3.822345    8.393834    ( 0.0000,  0.0000,  0.0000)
  46 O      6.244323    3.822345    6.887921    ( 0.0000,  0.0000,  0.0000)
  47 O      1.073450    5.733518    6.887921    ( 0.0000,  0.0000,  0.0000)
  48 O      9.798723    5.735410    9.588870    ( 0.0000,  0.0000,  0.0000)
  49 O      4.641680    3.824809    9.618048    ( 0.0000,  0.0000,  0.0000)
  50 Ti     2.783441    3.825771   10.337040    ( 0.0000,  0.0000,  0.0000)
  51 Ti     7.948628    5.740702   10.371484    ( 0.0000,  0.0000,  0.0000)
  52 Ti     0.517157    5.733642   11.153992    ( 0.0000,  0.0000,  0.0000)
  53 Ti     5.699384    3.834508   11.222850    ( 0.0000,  0.0000,  0.0000)
  54 O      0.907740    3.826627   11.074752    ( 0.0000,  0.0000,  0.0000)
  55 O      6.078796    5.735282   11.118860    ( 0.0000,  0.0000,  0.0000)
  56 O      9.045384    5.736397   11.948177    ( 0.0000,  0.0000,  0.0000)
  57 O      3.842663    3.838620   11.968688    ( 0.0000,  0.0000,  0.0000)
  58 O      7.540787    3.830529   10.463151    ( 0.0000,  0.0000,  0.0000)
  59 O      2.391666    5.736337   10.445279    ( 0.0000,  0.0000,  0.0000)
  60 O      0.963232    5.735230   13.089921    ( 0.0000,  0.0000,  0.0000)
  61 O      6.036142    3.754560   13.224322    ( 0.0000,  0.0000,  0.0000)
  62 Ti     4.206046    3.785623   13.883782    ( 0.0000,  0.0000,  0.0000)
  63 Ti     9.403719    5.736041   13.954209    ( 0.0000,  0.0000,  0.0000)
  64 Ti     1.858186    5.736108   14.693198    ( 0.0000,  0.0000,  0.0000)
  65 Ti     7.228402    3.815140   14.799971    ( 0.0000,  0.0000,  0.0000)
  66 O      2.361201    3.809345   14.800662    ( 0.0000,  0.0000,  0.0000)
  67 O      7.543460    5.738049   14.600119    ( 0.0000,  0.0000,  0.0000)
  68 O      0.176957    5.742626   15.435054    ( 0.0000,  0.0000,  0.0000)
  69 O      5.209490    3.949616   15.599952    ( 0.0000,  0.0000,  0.0000)
  70 O      8.991126    3.806759   13.981221    ( 0.0000,  0.0000,  0.0000)
  71 O      3.828135    5.747500   13.945917    ( 0.0000,  0.0000,  0.0000)
  72 O      8.476572    9.555862    6.000000    ( 0.0000,  0.0000,  0.0000)
  73 O      3.305699    7.644690    6.000000    ( 0.0000,  0.0000,  0.0000)
  74 Ti     1.412752    7.644690    6.752957    ( 0.0000,  0.0000,  0.0000)
  75 Ti     6.583625    9.555862    6.752957    ( 0.0000,  0.0000,  0.0000)
  76 Ti     9.522250    9.555862    7.640878    ( 0.0000,  0.0000,  0.0000)
  77 Ti     4.351376    7.644690    7.640878    ( 0.0000,  0.0000,  0.0000)
  78 O      9.861551    7.644690    7.505914    ( 0.0000,  0.0000,  0.0000)
  79 O      4.690678    9.555862    7.505914    ( 0.0000,  0.0000,  0.0000)
  80 O      7.629303    9.555862    8.393834    ( 0.0000,  0.0000,  0.0000)
  81 O      2.458430    7.644690    8.393834    ( 0.0000,  0.0000,  0.0000)
  82 O      6.244323    7.644690    6.887921    ( 0.0000,  0.0000,  0.0000)
  83 O      1.073450    9.555862    6.887921    ( 0.0000,  0.0000,  0.0000)
  84 O      9.801026    9.555443    9.579282    ( 0.0000,  0.0000,  0.0000)
  85 O      4.642514    7.641085    9.617628    ( 0.0000,  0.0000,  0.0000)
  86 Ti     2.785562    7.647711   10.340955    ( 0.0000,  0.0000,  0.0000)
  87 Ti     7.930624    9.565144   10.390934    ( 0.0000,  0.0000,  0.0000)
  88 Ti     0.493212    9.538108   11.116798    ( 0.0000,  0.0000,  0.0000)
  89 Ti     5.692153    7.651712   11.227625    ( 0.0000,  0.0000,  0.0000)
  90 O      0.907722    7.645122   11.076408    ( 0.0000,  0.0000,  0.0000)
  91 O      6.079459    9.553112   11.090890    ( 0.0000,  0.0000,  0.0000)
  92 O      9.038533    9.557527   11.942808    ( 0.0000,  0.0000,  0.0000)
  93 O      3.845719    7.652310   11.966990    ( 0.0000,  0.0000,  0.0000)
  94 O      7.543549    7.640515   10.463514    ( 0.0000,  0.0000,  0.0000)
  95 O      2.387286    9.550148   10.447019    ( 0.0000,  0.0000,  0.0000)
  96 O      0.942240    9.563879   13.070968    ( 0.0000,  0.0000,  0.0000)
  97 O      6.037222    7.688217   13.228166    ( 0.0000,  0.0000,  0.0000)
  98 Ti     4.205861    7.584046   13.899639    ( 0.0000,  0.0000,  0.0000)
  99 Ti     9.423918    9.618404   14.014432    ( 0.0000,  0.0000,  0.0000)
 100 Ti     1.876620    9.550823   14.588413    ( 0.0000,  0.0000,  0.0000)
 101 Ti     7.235787    7.683828   14.792461    ( 0.0000,  0.0000,  0.0000)
 102 O      2.360724    7.669276   14.801313    ( 0.0000,  0.0000,  0.0000)
 103 O      7.577801    9.621023   14.786675    ( 0.0000,  0.0000,  0.0000)
 104 O      0.241342    9.589605   15.448326    ( 0.0000,  0.0000,  0.0000)
 105 O      5.200849    7.632544   15.613763    ( 0.0000,  0.0000,  0.0000)
 106 O      8.989632    7.675650   13.978879    ( 0.0000,  0.0000,  0.0000)
 107 O      3.839998    9.567176   13.961504    ( 0.0000,  0.0000,  0.0000)
 108 V      5.873590    4.108984   17.257728    ( 0.0000,  0.0000,  0.0000)
 109 V      5.879961    7.418634   17.259067    ( 0.0000,  0.0000,  0.0000)
 110 O      2.743243    5.737437   16.773605    ( 0.0000,  0.0000,  0.0000)
 111 O      5.395268    8.548044   18.279144    ( 0.0000,  0.0000,  0.0000)
 112 O      5.587621    5.763871   17.903272    ( 0.0000,  0.0000,  0.0000)
 113 O      5.360289    2.988787   18.272812    ( 0.0000,  0.0000,  0.0000)
 114 O      7.516337    3.849814   16.696894    ( 0.0000,  0.0000,  0.0000)
 115 O      7.527370    7.619819   16.691120    ( 0.0000,  0.0000,  0.0000)
 116 H      2.482200    6.517030   17.297519    ( 0.0000,  0.0000,  0.0000)
 117 H      2.482187    4.960536   17.301573    ( 0.0000,  0.0000,  0.0000)

Unit cell:
           periodic     x           y           z      points  spacing
  1. axis:    yes   10.341746    0.000000    0.000000    54     0.1915
  2. axis:    yes   -0.000000   11.467000    0.000000    60     0.1911
  3. axis:    no     0.000000    0.000000   23.497201   125     0.1880

  Lengths:  10.341746  11.467000  23.497201
  Angles:   90.000000  90.000000  90.000000

Effective grid spacing dv^(1/3) = 0.1902

                     log10-error:    total        iterations:
           time      wfs    density  energy       fermi  poisson
iter:   1  21:41:11  -3.34   +inf  -970.681102    3             
iter:   2  21:42:08  -4.34  -3.31  -970.676822    2             
iter:   3  21:43:04  -3.70  -3.34  -970.664983    3             
iter:   4  21:44:00  -5.02  -3.56  -970.664661    2             
iter:   5  21:44:57  -4.74  -3.66  -970.663636    2             
iter:   6  21:45:53  -4.72  -3.83  -970.663208    2             
iter:   7  21:46:50  -5.10  -3.84  -970.662964    2             
iter:   8  21:47:46  -5.72  -4.00  -970.662744    2             
iter:   9  21:48:42  -5.97  -4.23  -970.662737    2             
iter:  10  21:49:39  -6.13  -4.27  -970.662723    2             
iter:  11  21:50:35  -6.54  -4.57  -970.662709    2             
iter:  12  21:51:31  -6.95  -4.60  -970.662708    1             
iter:  13  21:52:28  -6.81  -4.69  -970.662711    1             
iter:  14  21:53:24  -7.60  -4.85  -970.662708    1             

Converged after 14 iterations.

Dipole moment: (-18.722256, -0.753825, -1.000005) |e|*Ang

Energy contributions relative to reference atoms: (reference = -1046916.965077)

Kinetic:       +703.011088
Potential:     -893.668339
External:        +0.000000
XC:            -787.772321
Entropy (-ST):   -0.000504
Local:           +7.767117
--------------------------
Free energy:   -970.662960
Extrapolated:  -970.662708

Fermi level: -0.62026

Showing only first 2 kpts
 Kpt  Band  Eigenvalues  Occupancy
  0   462     -1.68792    0.22222
  0   463     -1.68514    0.22222
  0   464      0.23452    0.00004
  0   465      0.36352    0.00001

  1   462     -1.70175    0.44444
  1   463     -1.67510    0.44443
  1   464      0.42611    0.00001
  1   465      0.50303    0.00001



Forces in eV/Ang:
  0 O    -1.90190    0.00731    1.54761
  1 O    -1.91605    0.00066    1.54123
  2 Ti    3.84015   -0.00535    1.96316
  3 Ti    3.84796   -0.03896    1.96629
  4 Ti   -1.95682   -0.03928   -2.05935
  5 Ti   -1.89068   -0.00640   -2.00192
  6 O     0.89924    0.00678   -0.19256
  7 O     0.85113    0.07996   -0.17791
  8 O    -0.67258    0.02111   -0.58312
  9 O    -0.67797    0.00735   -0.61397
 10 O    -0.27919    0.00615   -0.86784
 11 O    -0.23860    0.09105   -0.86160
 12 O    -0.11651    0.00342    0.01988
 13 O    -0.15724   -0.00076    0.02688
 14 Ti    0.06480   -0.00147   -0.10539
 15 Ti    0.03977    0.01931   -0.07636
 16 Ti    0.06014   -0.02423    0.08083
 17 Ti    0.08305   -0.01006    0.06095
 18 O     0.08873   -0.00277   -0.07659
 19 O     0.09766   -0.00342   -0.04121
 20 O     0.02783    0.00310    0.07623
 21 O     0.00872   -0.00249    0.10044
 22 O    -0.00124    0.00377    0.08102
 23 O     0.02725   -0.01644    0.04726
 24 O    -0.07812    0.00243   -0.00298
 25 O    -0.06345    0.01784   -0.00231
 26 Ti    0.04217    0.10396   -0.11895
 27 Ti    0.01263    0.07247   -0.10868
 28 Ti    0.07043   -0.04816    0.01479
 29 Ti    0.13708   -0.01792   -0.00550
 30 O     0.05256   -0.00795    0.10223
 31 O     0.07006    0.02061   -0.02151
 32 O     0.06085   -0.00915    0.02677
 33 O     0.02916   -0.00175    0.03281
 34 O    -0.11856    0.00183    0.08928
 35 O    -0.19467   -0.07839    0.20273
 36 O    -1.91332   -0.00046    1.55063
 37 O    -1.89310    0.00662    1.60028
 38 Ti    3.65880   -0.04943    1.80274
 39 Ti    3.82645    0.00665    1.92372
 40 Ti   -1.88149    0.00355   -1.88542
 41 Ti   -1.62269   -0.04034   -1.70114
 42 O     0.94381    0.02630   -0.21046
 43 O     0.83888   -0.00721   -0.17517
 44 O    -0.69026    0.00220   -0.64958
 45 O    -0.64289    0.01674   -0.62431
 46 O    -0.32167    0.03484   -0.86178
 47 O    -0.22685   -0.00874   -0.88200
 48 O    -0.08777    0.00119    0.02106
 49 O    -0.11054    0.00323    0.01642
 50 Ti    0.00026    0.00094    0.00294
 51 Ti   -0.00733   -0.01410   -0.05321
 52 Ti    0.05234    0.00826    0.05135
 53 Ti    0.02035   -0.02354    0.08162
 54 O     0.14330    0.00703   -0.09191
 55 O     0.14390    0.01668    0.05012
 56 O     0.04416    0.00634    0.03247
 57 O     0.00462    0.00597    0.10313
 58 O     0.00604   -0.00520    0.10851
 59 O     0.03507   -0.00019    0.00444
 60 O    -0.18940    0.00216    0.04244
 61 O    -0.00246    0.00556   -0.15255
 62 Ti   -0.05394    0.09261    0.07147
 63 Ti    0.02077    0.02003   -0.07660
 64 Ti    0.11941    0.00087    0.05608
 65 Ti   -0.09070    0.00216   -0.02005
 66 O     0.03651    0.02563    0.02067
 67 O    -0.07333    0.02595    0.22348
 68 O    -0.03904   -0.00068   -0.01290
 69 O     0.16906   -0.08264   -0.07738
 70 O    -0.06901   -0.02275    0.17703
 71 O    -0.22257   -0.09109    0.09581
 72 O    -1.89972   -0.00617    1.54537
 73 O    -1.89059   -0.00789    1.59534
 74 Ti    3.67644    0.05680    1.82077
 75 Ti    3.85637    0.03452    1.97655
 76 Ti   -1.96705    0.03330   -2.06295
 77 Ti   -1.64305    0.04320   -1.69526
 78 O     0.94020   -0.02595   -0.21034
 79 O     0.85017   -0.07486   -0.17828
 80 O    -0.66934   -0.01459   -0.58548
 81 O    -0.63933   -0.00355   -0.62327
 82 O    -0.31890   -0.04104   -0.86221
 83 O    -0.23864   -0.08230   -0.86287
 84 O    -0.12092   -0.00444    0.01958
 85 O    -0.11350   -0.00021    0.01223
 86 Ti    0.00056   -0.00492   -0.00883
 87 Ti    0.03485   -0.01911   -0.08868
 88 Ti    0.06033    0.03654    0.08001
 89 Ti    0.04188   -0.00372    0.07089
 90 O     0.14568   -0.01015   -0.09525
 91 O     0.10139    0.03855   -0.03750
 92 O     0.03079   -0.00055    0.07477
 93 O    -0.00558    0.00286    0.12125
 94 O    -0.00284    0.01815    0.11874
 95 O     0.03008    0.01445    0.04636
 96 O    -0.06860    0.00068   -0.00753
 97 O    -0.01804    0.00108   -0.13867
 98 Ti   -0.06003    0.12911    0.03970
 99 Ti    0.00969   -0.07308   -0.12192
100 Ti    0.06073    0.05321    0.02394
101 Ti   -0.10334   -0.03398    0.00137
102 O     0.03699   -0.04325    0.02551
103 O     0.07404   -0.00979   -0.01692
104 O     0.05474   -0.00092    0.02319
105 O     0.18869   -0.03928   -0.10037
106 O    -0.04928    0.02616    0.17748
107 O    -0.21060   -0.07660    0.16492
108 V     0.05648    0.14143   -0.06358
109 V     0.04093   -0.11931   -0.05335
110 O    -0.12234    0.00058   -0.12484
111 O    -0.01402    0.03034    0.01626
112 O    -0.00831    0.01799    0.11915
113 O    -0.05777   -0.01572   -0.00561
114 O    -0.10991    0.03755   -0.03855
115 O    -0.12206    0.01221   -0.05553
116 H    -0.05263    0.08223    0.08006
117 H    -0.04950   -0.08411    0.07675

System changes: positions 

Initializing position-dependent things.

Density initialized from wave functions
                                               
                                               
                                               
                                               
                                               
                         O                     
                                               
                        O V                    
             O   H            O                
                HOi   O Vi     O               
          O      O    O     OTi     Ti         
               Ti     Oi     O    O            
               O    O     OTi    TiO           
        O   O      Ti      O   O               
            Tii  OO OO  OTiO   Tii             
             O          Ti    O  O   O         
          OTi     Oi   O O   O                 
           O    O     OTi     Oi               
         Ti     Oi     OO   O     O Ti         
         O    OO    OTii    Tii     O          
              Tii     O  O O    OOTi           
             O    OOTi    TO     O             
            TO     O    O      Ti              
          O      OTi    Ti                     
          Ti          O      O O               
               O                               
                                               
                                               
                                               
                                               

Positions:
   0 O      8.476572    1.911173    6.000000    ( 0.0000,  0.0000,  0.0000)
   1 O      3.305699    0.000000    6.000000    ( 0.0000,  0.0000,  0.0000)
   2 Ti     1.412752    0.000000    6.752957    ( 0.0000,  0.0000,  0.0000)
   3 Ti     6.583625    1.911173    6.752957    ( 0.0000,  0.0000,  0.0000)
   4 Ti     9.522250    1.911173    7.640878    ( 0.0000,  0.0000,  0.0000)
   5 Ti     4.351376    0.000000    7.640878    ( 0.0000,  0.0000,  0.0000)
   6 O      9.861551    0.000000    7.505914    ( 0.0000,  0.0000,  0.0000)
   7 O      4.690678    1.911173    7.505914    ( 0.0000,  0.0000,  0.0000)
   8 O      7.629303    1.911173    8.393834    ( 0.0000,  0.0000,  0.0000)
   9 O      2.458430    0.000000    8.393834    ( 0.0000,  0.0000,  0.0000)
  10 O      6.244323    0.000000    6.887921    ( 0.0000,  0.0000,  0.0000)
  11 O      1.073450    1.911173    6.887921    ( 0.0000,  0.0000,  0.0000)
  12 O      9.795439    1.914978    9.580052    ( 0.0000,  0.0000,  0.0000)
  13 O      4.630282   -0.000549    9.581691    ( 0.0000,  0.0000,  0.0000)
  14 Ti     2.749869    0.003201   10.384658    ( 0.0000,  0.0000,  0.0000)
  15 Ti     7.930158    1.907531   10.385525    ( 0.0000,  0.0000,  0.0000)
  16 Ti     0.495202    1.928300   11.120744    ( 0.0000,  0.0000,  0.0000)
  17 Ti     5.650381    0.008068   11.133724    ( 0.0000,  0.0000,  0.0000)
  18 O      0.916109    0.003052   11.071353    ( 0.0000,  0.0000,  0.0000)
  19 O      6.083629    1.915130   11.087877    ( 0.0000,  0.0000,  0.0000)
  20 O      9.039600    1.919884   11.946431    ( 0.0000,  0.0000,  0.0000)
  21 O      3.855739    0.010921   11.949764    ( 0.0000,  0.0000,  0.0000)
  22 O      7.550628    0.001920   10.453882    ( 0.0000,  0.0000,  0.0000)
  23 O      2.388932    1.922814   10.448364    ( 0.0000,  0.0000,  0.0000)
  24 O      0.940106    1.911355   13.071567    ( 0.0000,  0.0000,  0.0000)
  25 O      6.095750   -0.005870   13.074012    ( 0.0000,  0.0000,  0.0000)
  26 Ti     4.208153   11.427097   14.014262    ( 0.0000,  0.0000,  0.0000)
  27 Ti     9.416393    1.868932   14.006067    ( 0.0000,  0.0000,  0.0000)
  28 Ti     1.872872    1.924491   14.594150    ( 0.0000,  0.0000,  0.0000)
  29 Ti     7.010241    0.010120   14.602397    ( 0.0000,  0.0000,  0.0000)
  30 O      2.394524    0.008190   14.815873    ( 0.0000,  0.0000,  0.0000)
  31 O      7.576477    1.863009   14.784377    ( 0.0000,  0.0000,  0.0000)
  32 O      0.237673    1.902998   15.450063    ( 0.0000,  0.0000,  0.0000)
  33 O      5.393421   -0.005590   15.456385    ( 0.0000,  0.0000,  0.0000)
  34 O      9.051178    0.007910   13.944700    ( 0.0000,  0.0000,  0.0000)
  35 O      3.838646    1.921617   13.975183    ( 0.0000,  0.0000,  0.0000)
  36 O      8.476572    5.733518    6.000000    ( 0.0000,  0.0000,  0.0000)
  37 O      3.305699    3.822345    6.000000    ( 0.0000,  0.0000,  0.0000)
  38 Ti     1.412752    3.822345    6.752957    ( 0.0000,  0.0000,  0.0000)
  39 Ti     6.583625    5.733518    6.752957    ( 0.0000,  0.0000,  0.0000)
  40 Ti     9.522250    5.733518    7.640878    ( 0.0000,  0.0000,  0.0000)
  41 Ti     4.351376    3.822345    7.640878    ( 0.0000,  0.0000,  0.0000)
  42 O      9.861551    3.822345    7.505914    ( 0.0000,  0.0000,  0.0000)
  43 O      4.690678    5.733518    7.505914    ( 0.0000,  0.0000,  0.0000)
  44 O      7.629303    5.733518    8.393834    ( 0.0000,  0.0000,  0.0000)
  45 O      2.458430    3.822345    8.393834    ( 0.0000,  0.0000,  0.0000)
  46 O      6.244323    3.822345    6.887921    ( 0.0000,  0.0000,  0.0000)
  47 O      1.073450    5.733518    6.887921    ( 0.0000,  0.0000,  0.0000)
  48 O      9.795085    5.735458    9.589720    ( 0.0000,  0.0000,  0.0000)
  49 O      4.637082    3.824928    9.618630    ( 0.0000,  0.0000,  0.0000)
  50 Ti     2.783282    3.825758   10.337199    ( 0.0000,  0.0000,  0.0000)
  51 Ti     7.948181    5.740147   10.369192    ( 0.0000,  0.0000,  0.0000)
  52 Ti     0.519281    5.733956   11.155959    ( 0.0000,  0.0000,  0.0000)
  53 Ti     5.700225    3.833545   11.225965    ( 0.0000,  0.0000,  0.0000)
  54 O      0.913624    3.826999   11.070996    ( 0.0000,  0.0000,  0.0000)
  55 O      6.084671    5.735970   11.120814    ( 0.0000,  0.0000,  0.0000)
  56 O      9.047329    5.736644   11.949742    ( 0.0000,  0.0000,  0.0000)
  57 O      3.842951    3.838904   11.972646    ( 0.0000,  0.0000,  0.0000)
  58 O      7.540862    3.830302   10.467440    ( 0.0000,  0.0000,  0.0000)
  59 O      2.392898    5.736324   10.445410    ( 0.0000,  0.0000,  0.0000)
  60 O      0.955257    5.735312   13.091346    ( 0.0000,  0.0000,  0.0000)
  61 O      6.036242    3.754806   13.218345    ( 0.0000,  0.0000,  0.0000)
  62 Ti     4.203652    3.789199   13.886621    ( 0.0000,  0.0000,  0.0000)
  63 Ti     9.404608    5.736808   13.950336    ( 0.0000,  0.0000,  0.0000)
  64 Ti     1.864329    5.736135   14.695287    ( 0.0000,  0.0000,  0.0000)
  65 Ti     7.224882    3.814928   14.799001    ( 0.0000,  0.0000,  0.0000)
  66 O      2.362581    3.810281   14.801283    ( 0.0000,  0.0000,  0.0000)
  67 O      7.540613    5.739152   14.609023    ( 0.0000,  0.0000,  0.0000)
  68 O      0.174743    5.742608   15.434952    ( 0.0000,  0.0000,  0.0000)
  69 O      5.216525    3.946439   15.597116    ( 0.0000,  0.0000,  0.0000)
  70 O      8.988255    3.805583   13.988351    ( 0.0000,  0.0000,  0.0000)
  71 O      3.819286    5.743807   13.949652    ( 0.0000,  0.0000,  0.0000)
  72 O      8.476572    9.555862    6.000000    ( 0.0000,  0.0000,  0.0000)
  73 O      3.305699    7.644690    6.000000    ( 0.0000,  0.0000,  0.0000)
  74 Ti     1.412752    7.644690    6.752957    ( 0.0000,  0.0000,  0.0000)
  75 Ti     6.583625    9.555862    6.752957    ( 0.0000,  0.0000,  0.0000)
  76 Ti     9.522250    9.555862    7.640878    ( 0.0000,  0.0000,  0.0000)
  77 Ti     4.351376    7.644690    7.640878    ( 0.0000,  0.0000,  0.0000)
  78 O      9.861551    7.644690    7.505914    ( 0.0000,  0.0000,  0.0000)
  79 O      4.690678    9.555862    7.505914    ( 0.0000,  0.0000,  0.0000)
  80 O      7.629303    9.555862    8.393834    ( 0.0000,  0.0000,  0.0000)
  81 O      2.458430    7.644690    8.393834    ( 0.0000,  0.0000,  0.0000)
  82 O      6.244323    7.644690    6.887921    ( 0.0000,  0.0000,  0.0000)
  83 O      1.073450    9.555862    6.887921    ( 0.0000,  0.0000,  0.0000)
  84 O      9.795988    9.555277    9.579844    ( 0.0000,  0.0000,  0.0000)
  85 O      4.637790    7.641077    9.617995    ( 0.0000,  0.0000,  0.0000)
  86 Ti     2.785422    7.647564   10.340621    ( 0.0000,  0.0000,  0.0000)
  87 Ti     7.931750    9.564407   10.387270    ( 0.0000,  0.0000,  0.0000)
  88 Ti     0.495736    9.539564   11.119943    ( 0.0000,  0.0000,  0.0000)
  89 Ti     5.693849    7.651597   11.230293    ( 0.0000,  0.0000,  0.0000)
  90 O      0.913691    7.644620   11.072528    ( 0.0000,  0.0000,  0.0000)
  91 O      6.083722    9.554645   11.089351    ( 0.0000,  0.0000,  0.0000)
  92 O      9.039798    9.557524   11.945987    ( 0.0000,  0.0000,  0.0000)
  93 O      3.845597    7.652439   11.971712    ( 0.0000,  0.0000,  0.0000)
  94 O      7.543290    7.641227   10.468198    ( 0.0000,  0.0000,  0.0000)
  95 O      2.388376    9.550668   10.448818    ( 0.0000,  0.0000,  0.0000)
  96 O      0.939154    9.563919   13.070710    ( 0.0000,  0.0000,  0.0000)
  97 O      6.036731    7.688224   13.222814    ( 0.0000,  0.0000,  0.0000)
  98 Ti     4.203235    7.589020   13.901250    ( 0.0000,  0.0000,  0.0000)
  99 Ti     9.423808    9.615462   14.008955    ( 0.0000,  0.0000,  0.0000)
 100 Ti     1.880393    9.552730   14.589112    ( 0.0000,  0.0000,  0.0000)
 101 Ti     7.231778    7.682762   14.792272    ( 0.0000,  0.0000,  0.0000)
 102 O      2.362122    7.667821   14.802113    ( 0.0000,  0.0000,  0.0000)
 103 O      7.581038    9.620476   14.785981    ( 0.0000,  0.0000,  0.0000)
 104 O      0.243171    9.589613   15.449765    ( 0.0000,  0.0000,  0.0000)
 105 O      5.208733    7.630958   15.610156    ( 0.0000,  0.0000,  0.0000)
 106 O      8.987503    7.676923   13.986054    ( 0.0000,  0.0000,  0.0000)
 107 O      3.831383    9.564272   13.968112    ( 0.0000,  0.0000,  0.0000)
 108 V      5.874974    4.110993   17.257514    ( 0.0000,  0.0000,  0.0000)
 109 V      5.880730    7.417142   17.259043    ( 0.0000,  0.0000,  0.0000)
 110 O      2.734712    5.737468   16.776967    ( 0.0000,  0.0000,  0.0000)
 111 O      5.395720    8.546763   18.277673    ( 0.0000,  0.0000,  0.0000)
 112 O      5.587297    5.764729   17.908171    ( 0.0000,  0.0000,  0.0000)
 113 O      5.359140    2.990787   18.270317    ( 0.0000,  0.0000,  0.0000)
 114 O      7.511480    3.851538   16.694972    ( 0.0000,  0.0000,  0.0000)
 115 O      7.522067    7.620086   16.688521    ( 0.0000,  0.0000,  0.0000)
 116 H      2.482080    6.515242   17.296746    ( 0.0000,  0.0000,  0.0000)
 117 H      2.482195    4.962248   17.300636    ( 0.0000,  0.0000,  0.0000)

Unit cell:
           periodic     x           y           z      points  spacing
  1. axis:    yes   10.341746    0.000000    0.000000    54     0.1915
  2. axis:    yes   -0.000000   11.467000    0.000000    60     0.1911
  3. axis:    no     0.000000    0.000000   23.497201   125     0.1880

  Lengths:  10.341746  11.467000  23.497201
  Angles:   90.000000  90.000000  90.000000

Effective grid spacing dv^(1/3) = 0.1902

                     log10-error:    total        iterations:
           time      wfs    density  energy       fermi  poisson
iter:   1  21:54:41  -2.94   +inf  -970.715597    3             
iter:   2  21:55:37  -3.89  -3.18  -970.713210    2             
iter:   3  21:56:34  -3.63  -3.21  -970.702517    3             
iter:   4  21:57:30  -4.64  -3.45  -970.702190    2             
iter:   5  21:58:26  -4.54  -3.48  -970.701958    2             
iter:   6  21:59:22  -4.61  -3.58  -970.700791    2             
iter:   7  22:00:18  -5.29  -3.78  -970.700531    2             
iter:   8  22:01:15  -5.83  -3.98  -970.700481    2             
iter:   9  22:02:11  -5.72  -4.16  -970.700494    2             
iter:  10  22:03:07  -6.00  -4.19  -970.700452    2             
iter:  11  22:04:03  -7.02  -4.50  -970.700443    2             
iter:  12  22:04:59  -6.81  -4.53  -970.700442    2             
iter:  13  22:05:56  -6.81  -4.55  -970.700444    2             
iter:  14  22:06:52  -6.84  -4.82  -970.700443    2             
iter:  15  22:07:48  -7.31  -4.84  -970.700440    2             
iter:  16  22:08:44  -7.75  -5.12  -970.700440    1             

Converged after 16 iterations.

Dipole moment: (-18.809529, -0.964064, -1.023535) |e|*Ang

Energy contributions relative to reference atoms: (reference = -1046916.965077)

Kinetic:       +703.832576
Potential:     -894.279220
External:        +0.000000
XC:            -788.024749
Entropy (-ST):   -0.000500
Local:           +7.771203
--------------------------
Free energy:   -970.700690
Extrapolated:  -970.700440

Fermi level: -0.62833

Showing only first 2 kpts
 Kpt  Band  Eigenvalues  Occupancy
  0   462     -1.69747    0.22222
  0   463     -1.69521    0.22222
  0   464      0.22702    0.00004
  0   465      0.35569    0.00001

  1   462     -1.71071    0.44444
  1   463     -1.68516    0.44443
  1   464      0.41933    0.00001
  1   465      0.49526    0.00001



Forces in eV/Ang:
  0 O    -1.90566    0.00683    1.54857
  1 O    -1.91826    0.00056    1.54321
  2 Ti    3.83371   -0.00461    1.95421
  3 Ti    3.84113   -0.03577    1.95792
  4 Ti   -1.94364   -0.03636   -2.04749
  5 Ti   -1.88281   -0.00578   -1.99175
  6 O     0.89999    0.00620   -0.19248
  7 O     0.85528    0.07500   -0.17907
  8 O    -0.69215    0.02149   -0.59325
  9 O    -0.70091    0.00727   -0.63493
 10 O    -0.27759    0.00525   -0.86478
 11 O    -0.23989    0.08423   -0.85951
 12 O    -0.04977    0.00444    0.05707
 13 O    -0.07977    0.00036    0.06290
 14 Ti    0.09017   -0.00184   -0.06483
 15 Ti    0.05923    0.01692   -0.03501
 16 Ti    0.02990   -0.02101    0.05223
 17 Ti    0.04642   -0.00833    0.04050
 18 O     0.02870   -0.00053   -0.05445
 19 O     0.04331   -0.00698   -0.03060
 20 O     0.02199    0.00778    0.02247
 21 O     0.01272   -0.00466    0.06469
 22 O     0.01538    0.00768    0.06779
 23 O     0.03081   -0.02099    0.04665
 24 O    -0.01415    0.00359   -0.00585
 25 O    -0.03598    0.01583    0.00143
 26 Ti    0.09589    0.09661    0.00950
 27 Ti    0.05882    0.03576    0.00617
 28 Ti   -0.10258   -0.06931    0.04920
 29 Ti    0.03300   -0.01377    0.02699
 30 O     0.03982   -0.02126    0.07681
 31 O     0.01299    0.00655   -0.01429
 32 O     0.08222   -0.00517   -0.05913
 33 O     0.05724   -0.00333   -0.09122
 34 O    -0.09978    0.00255    0.06252
 35 O    -0.10470   -0.02217    0.15739
 36 O    -1.91651   -0.00037    1.55209
 37 O    -1.89397    0.00623    1.59898
 38 Ti    3.66593   -0.04578    1.80813
 39 Ti    3.81726    0.00584    1.91526
 40 Ti   -1.86649    0.00308   -1.87186
 41 Ti   -1.63272   -0.03728   -1.67978
 42 O     0.94112    0.02557   -0.20983
 43 O     0.84445   -0.00663   -0.17749
 44 O    -0.70624    0.00295   -0.65751
 45 O    -0.65942    0.01429   -0.64047
 46 O    -0.31654    0.03375   -0.86463
 47 O    -0.22950   -0.00778   -0.88161
 48 O    -0.04063    0.00078    0.02418
 49 O    -0.05291    0.00424    0.03258
 50 Ti    0.02854    0.00544   -0.00557
 51 Ti    0.01665   -0.01122   -0.01105
 52 Ti    0.03088    0.00815    0.04554
 53 Ti    0.01424   -0.01731    0.07285
 54 O     0.07699   -0.00607   -0.05619
 55 O     0.08568    0.00679    0.03941
 56 O     0.01170    0.00585   -0.01658
 57 O    -0.00835   -0.00463    0.08807
 58 O     0.02589   -0.00080    0.08935
 59 O     0.04489    0.00039    0.00856
 60 O    -0.09856    0.00234    0.04604
 61 O    -0.02099    0.00185   -0.10795
 62 Ti   -0.04325    0.08546    0.03609
 63 Ti    0.01939    0.01945    0.06151
 64 Ti   -0.09038    0.00110    0.05433
 65 Ti   -0.05595    0.01428   -0.02029
 66 O     0.03691    0.01238    0.03245
 67 O    -0.06282    0.01034    0.16768
 68 O     0.03215   -0.00191   -0.06979
 69 O     0.09317   -0.06671   -0.12046
 70 O    -0.03698    0.02831    0.13757
 71 O    -0.14969   -0.04708    0.07734
 72 O    -1.90400   -0.00577    1.54661
 73 O    -1.89212   -0.00743    1.59429
 74 Ti    3.68174    0.05244    1.82401
 75 Ti    3.84787    0.03204    1.96618
 76 Ti   -1.95166    0.03090   -2.05096
 77 Ti   -1.65083    0.03964   -1.67620
 78 O     0.93788   -0.02454   -0.20988
 79 O     0.85462   -0.07035   -0.17966
 80 O    -0.68979   -0.01485   -0.59546
 81 O    -0.65691   -0.00112   -0.63942
 82 O    -0.31393   -0.03897   -0.86453
 83 O    -0.24006   -0.07646   -0.86048
 84 O    -0.05255   -0.00530    0.05447
 85 O    -0.05399   -0.00008    0.03663
 86 Ti    0.02794   -0.00784   -0.01025
 87 Ti    0.05696   -0.01563   -0.04074
 88 Ti    0.02843    0.03092    0.05335
 89 Ti    0.03032   -0.00458    0.06854
 90 O     0.07958    0.00570   -0.05983
 91 O     0.04464    0.02289   -0.02652
 92 O     0.02487   -0.00430    0.02093
 93 O    -0.01589   -0.00167    0.09272
 94 O     0.01723    0.01490    0.09808
 95 O     0.03377    0.01818    0.04439
 96 O    -0.00579   -0.00015   -0.00711
 97 O    -0.03433    0.00705   -0.10981
 98 Ti   -0.05018    0.12325    0.00487
 99 Ti    0.05453   -0.03709   -0.00344
100 Ti   -0.11169    0.06430    0.05272
101 Ti   -0.07045   -0.04049    0.00079
102 O     0.03589   -0.05496    0.03837
103 O     0.01957   -0.00198   -0.01477
104 O     0.07058   -0.00545   -0.06274
105 O     0.10344   -0.04066   -0.14928
106 O    -0.01765   -0.01985    0.13449
107 O    -0.11187   -0.06705    0.12424
108 V    -0.01741    0.16459   -0.02857
109 V    -0.00972   -0.13520   -0.01988
110 O     0.03811   -0.00022   -0.44289
111 O    -0.02065    0.05626    0.03052
112 O    -0.00861    0.00298    0.09053
113 O    -0.05335   -0.03766    0.01264
114 O     0.00542    0.01334    0.00462
115 O    -0.00586    0.02678   -0.00276
116 H    -0.13653    0.28977    0.24796
117 H    -0.13335   -0.29199    0.24688

System changes: positions 

Initializing position-dependent things.

Density initialized from wave functions
                                               
                                               
                                               
                                               
                                               
                         O                     
                                               
                        O V                    
             O   H            O                
                HOi   O Vi     O               
          O      O    O     OTi     Ti         
               Ti     Oi     O   O             
               O    O     OTi    TiO           
        O   O      Ti      O   O               
            TiTi OO OO  OTiO   Tii             
             O          Ti    O  O   O         
          OTi     Oi   O O   O                 
           O    O     OTi     Oi               
         Ti     Oi     OO   O     O Ti         
         O    OO    OTii    Tii     O          
              Tii     O  O O    OOTi           
             O    OOTi    TO     O             
            TO     O    O      Ti              
          O      OTi    Ti                     
          Ti          O      O O               
               O                               
                                               
                                               
                                               
                                               

Positions:
   0 O      8.476572    1.911173    6.000000    ( 0.0000,  0.0000,  0.0000)
   1 O      3.305699    0.000000    6.000000    ( 0.0000,  0.0000,  0.0000)
   2 Ti     1.412752    0.000000    6.752957    ( 0.0000,  0.0000,  0.0000)
   3 Ti     6.583625    1.911173    6.752957    ( 0.0000,  0.0000,  0.0000)
   4 Ti     9.522250    1.911173    7.640878    ( 0.0000,  0.0000,  0.0000)
   5 Ti     4.351376    0.000000    7.640878    ( 0.0000,  0.0000,  0.0000)
   6 O      9.861551    0.000000    7.505914    ( 0.0000,  0.0000,  0.0000)
   7 O      4.690678    1.911173    7.505914    ( 0.0000,  0.0000,  0.0000)
   8 O      7.629303    1.911173    8.393834    ( 0.0000,  0.0000,  0.0000)
   9 O      2.458430    0.000000    8.393834    ( 0.0000,  0.0000,  0.0000)
  10 O      6.244323    0.000000    6.887921    ( 0.0000,  0.0000,  0.0000)
  11 O      1.073450    1.911173    6.887921    ( 0.0000,  0.0000,  0.0000)
  12 O      9.789144    1.915215    9.581972    ( 0.0000,  0.0000,  0.0000)
  13 O      4.621574   -0.000578    9.583989    ( 0.0000,  0.0000,  0.0000)
  14 Ti     2.754355    0.003099   10.378758    ( 0.0000,  0.0000,  0.0000)
  15 Ti     7.932891    1.908694   10.381401    ( 0.0000,  0.0000,  0.0000)
  16 Ti     0.498557    1.926775   11.125276    ( 0.0000,  0.0000,  0.0000)
  17 Ti     5.655054    0.007453   11.137277    ( 0.0000,  0.0000,  0.0000)
  18 O      0.920787    0.002909   11.066794    ( 0.0000,  0.0000,  0.0000)
  19 O      6.089003    1.914912   11.085365    ( 0.0000,  0.0000,  0.0000)
  20 O      9.041359    1.920170   11.950361    ( 0.0000,  0.0000,  0.0000)
  21 O      3.856394    0.010724   11.955371    ( 0.0000,  0.0000,  0.0000)
  22 O      7.550814    0.002218   10.458829    ( 0.0000,  0.0000,  0.0000)
  23 O      2.390660    1.921718   10.451378    ( 0.0000,  0.0000,  0.0000)
  24 O      0.936071    1.911512   13.071397    ( 0.0000,  0.0000,  0.0000)
  25 O      6.092278   -0.004766   13.074136    ( 0.0000,  0.0000,  0.0000)
  26 Ti     4.211394   11.433538   14.008811    ( 0.0000,  0.0000,  0.0000)
  27 Ti     9.417585    1.872808   14.000909    ( 0.0000,  0.0000,  0.0000)
  28 Ti     1.875168    1.921166   14.595588    ( 0.0000,  0.0000,  0.0000)
  29 Ti     7.017240    0.009076   14.602372    ( 0.0000,  0.0000,  0.0000)
  30 O      2.397627    0.007452   14.821811    ( 0.0000,  0.0000,  0.0000)
  31 O      7.580127    1.864269   14.783060    ( 0.0000,  0.0000,  0.0000)
  32 O      0.241582    1.902450   15.450379    ( 0.0000,  0.0000,  0.0000)
  33 O      5.395767   -0.005729   15.456337    ( 0.0000,  0.0000,  0.0000)
  34 O      9.044086    0.008034   13.950034    ( 0.0000,  0.0000,  0.0000)
  35 O      3.827842    1.917610   13.987409    ( 0.0000,  0.0000,  0.0000)
  36 O      8.476572    5.733518    6.000000    ( 0.0000,  0.0000,  0.0000)
  37 O      3.305699    3.822345    6.000000    ( 0.0000,  0.0000,  0.0000)
  38 Ti     1.412752    3.822345    6.752957    ( 0.0000,  0.0000,  0.0000)
  39 Ti     6.583625    5.733518    6.752957    ( 0.0000,  0.0000,  0.0000)
  40 Ti     9.522250    5.733518    7.640878    ( 0.0000,  0.0000,  0.0000)
  41 Ti     4.351376    3.822345    7.640878    ( 0.0000,  0.0000,  0.0000)
  42 O      9.861551    3.822345    7.505914    ( 0.0000,  0.0000,  0.0000)
  43 O      4.690678    5.733518    7.505914    ( 0.0000,  0.0000,  0.0000)
  44 O      7.629303    5.733518    8.393834    ( 0.0000,  0.0000,  0.0000)
  45 O      2.458430    3.822345    8.393834    ( 0.0000,  0.0000,  0.0000)
  46 O      6.244323    3.822345    6.887921    ( 0.0000,  0.0000,  0.0000)
  47 O      1.073450    5.733518    6.887921    ( 0.0000,  0.0000,  0.0000)
  48 O      9.790302    5.735527    9.591224    ( 0.0000,  0.0000,  0.0000)
  49 O      4.630980    3.825154    9.620037    ( 0.0000,  0.0000,  0.0000)
  50 Ti     2.783776    3.825853   10.337235    ( 0.0000,  0.0000,  0.0000)
  51 Ti     7.948079    5.739303   10.366511    ( 0.0000,  0.0000,  0.0000)
  52 Ti     0.522236    5.734474   11.159067    ( 0.0000,  0.0000,  0.0000)
  53 Ti     5.701465    3.832108   11.230899    ( 0.0000,  0.0000,  0.0000)
  54 O      0.921627    3.827270   11.065706    ( 0.0000,  0.0000,  0.0000)
  55 O      6.092879    5.736849   11.123773    ( 0.0000,  0.0000,  0.0000)
  56 O      9.049700    5.737042   11.951032    ( 0.0000,  0.0000,  0.0000)
  57 O      3.843086    3.839091   11.978813    ( 0.0000,  0.0000,  0.0000)
  58 O      7.541516    3.830042   10.474059    ( 0.0000,  0.0000,  0.0000)
  59 O      2.395202    5.736318   10.445737    ( 0.0000,  0.0000,  0.0000)
  60 O      0.944411    5.735454   13.093789    ( 0.0000,  0.0000,  0.0000)
  61 O      6.035922    3.755117   13.209621    ( 0.0000,  0.0000,  0.0000)
  62 Ti     4.199924    3.794949   13.890377    ( 0.0000,  0.0000,  0.0000)
  63 Ti     9.406061    5.738067   13.947586    ( 0.0000,  0.0000,  0.0000)
  64 Ti     1.868958    5.736186   14.698705    ( 0.0000,  0.0000,  0.0000)
  65 Ti     7.219981    3.814873   14.797358    ( 0.0000,  0.0000,  0.0000)
  66 O      2.364885    3.811466   14.802617    ( 0.0000,  0.0000,  0.0000)
  67 O      7.536164    5.740569   14.622332    ( 0.0000,  0.0000,  0.0000)
  68 O      0.172935    5.742544   15.433265    ( 0.0000,  0.0000,  0.0000)
  69 O      5.226200    3.941595   15.591232    ( 0.0000,  0.0000,  0.0000)
  70 O      8.984337    3.804996   13.999161    ( 0.0000,  0.0000,  0.0000)
  71 O      3.806545    5.738853   13.955361    ( 0.0000,  0.0000,  0.0000)
  72 O      8.476572    9.555862    6.000000    ( 0.0000,  0.0000,  0.0000)
  73 O      3.305699    7.644690    6.000000    ( 0.0000,  0.0000,  0.0000)
  74 Ti     1.412752    7.644690    6.752957    ( 0.0000,  0.0000,  0.0000)
  75 Ti     6.583625    9.555862    6.752957    ( 0.0000,  0.0000,  0.0000)
  76 Ti     9.522250    9.555862    7.640878    ( 0.0000,  0.0000,  0.0000)
  77 Ti     4.351376    7.644690    7.640878    ( 0.0000,  0.0000,  0.0000)
  78 O      9.861551    7.644690    7.505914    ( 0.0000,  0.0000,  0.0000)
  79 O      4.690678    9.555862    7.505914    ( 0.0000,  0.0000,  0.0000)
  80 O      7.629303    9.555862    8.393834    ( 0.0000,  0.0000,  0.0000)
  81 O      2.458430    7.644690    8.393834    ( 0.0000,  0.0000,  0.0000)
  82 O      6.244323    7.644690    6.887921    ( 0.0000,  0.0000,  0.0000)
  83 O      1.073450    9.555862    6.887921    ( 0.0000,  0.0000,  0.0000)
  84 O      9.789445    9.554977    9.581717    ( 0.0000,  0.0000,  0.0000)
  85 O      4.631530    7.641066    9.619265    ( 0.0000,  0.0000,  0.0000)
  86 Ti     2.785923    7.647244   10.340028    ( 0.0000,  0.0000,  0.0000)
  87 Ti     7.934204    9.563277   10.382467    ( 0.0000,  0.0000,  0.0000)
  88 Ti     0.499081    9.541836   11.124447    ( 0.0000,  0.0000,  0.0000)
  89 Ti     5.696360    7.651387   11.234659    ( 0.0000,  0.0000,  0.0000)
  90 O      0.921842    7.644208   11.067025    ( 0.0000,  0.0000,  0.0000)
  91 O      6.089293    9.556768   11.087082    ( 0.0000,  0.0000,  0.0000)
  92 O      9.041749    9.557417   11.949828    ( 0.0000,  0.0000,  0.0000)
  93 O      3.845122    7.652530   11.978785    ( 0.0000,  0.0000,  0.0000)
  94 O      7.543392    7.642323   10.475433    ( 0.0000,  0.0000,  0.0000)
  95 O      2.390281    9.551631   10.451756    ( 0.0000,  0.0000,  0.0000)
  96 O      0.935696    9.563965   13.070296    ( 0.0000,  0.0000,  0.0000)
  97 O      6.035491    7.688394   13.214708    ( 0.0000,  0.0000,  0.0000)
  98 Ti     4.199100    7.597130   13.902981    ( 0.0000,  0.0000,  0.0000)
  99 Ti     9.424800    9.611546   14.003013    ( 0.0000,  0.0000,  0.0000)
 100 Ti     1.882096    9.556189   14.591039    ( 0.0000,  0.0000,  0.0000)
 101 Ti     7.226014    7.680840   14.791912    ( 0.0000,  0.0000,  0.0000)
 102 O      2.364414    7.665104   14.803775    ( 0.0000,  0.0000,  0.0000)
 103 O      7.584970    9.619761   14.784880    ( 0.0000,  0.0000,  0.0000)
 104 O      0.246613    9.589507   15.449857    ( 0.0000,  0.0000,  0.0000)
 105 O      5.219574    7.628272   15.602842    ( 0.0000,  0.0000,  0.0000)
 106 O      8.984806    7.677805   13.996845    ( 0.0000,  0.0000,  0.0000)
 107 O      3.819714    9.559713   13.978014    ( 0.0000,  0.0000,  0.0000)
 108 V      5.875140    4.114537   17.258407    ( 0.0000,  0.0000,  0.0000)
 109 V      5.880510    7.414617   17.260184    ( 0.0000,  0.0000,  0.0000)
 110 O      2.724462    5.737500   16.774828    ( 0.0000,  0.0000,  0.0000)
 111 O      5.396416    8.545035   18.275356    ( 0.0000,  0.0000,  0.0000)
 112 O      5.586750    5.765763   17.915568    ( 0.0000,  0.0000,  0.0000)
 113 O      5.357488    2.993840   18.266381    ( 0.0000,  0.0000,  0.0000)
 114 O      7.506501    3.853772   16.692911    ( 0.0000,  0.0000,  0.0000)
 115 O      7.516375    7.620907   16.685593    ( 0.0000,  0.0000,  0.0000)
 116 H      2.479809    6.517359   17.299600    ( 0.0000,  0.0000,  0.0000)
 117 H      2.480139    4.959992   17.303274    ( 0.0000,  0.0000,  0.0000)

Unit cell:
           periodic     x           y           z      points  spacing
  1. axis:    yes   10.341746    0.000000    0.000000    54     0.1915
  2. axis:    yes   -0.000000   11.467000    0.000000    60     0.1911
  3. axis:    no     0.000000    0.000000   23.497201   125     0.1880

  Lengths:  10.341746  11.467000  23.497201
  Angles:   90.000000  90.000000  90.000000

Effective grid spacing dv^(1/3) = 0.1902

                     log10-error:    total        iterations:
           time      wfs    density  energy       fermi  poisson
iter:   1  22:10:01  -2.75   +inf  -970.740924    3             
iter:   2  22:10:58  -3.65  -3.14  -970.740860    2             
iter:   3  22:11:54  -3.75  -3.16  -970.730954    3             
iter:   4  22:12:50  -4.18  -3.40  -970.731251    2             
iter:   5  22:13:46  -4.45  -3.45  -970.730350    2             
iter:   6  22:14:43  -4.54  -3.62  -970.730257    2             
iter:   7  22:15:39  -5.35  -3.75  -970.729915    2             
iter:   8  22:16:35  -5.09  -3.85  -970.729601    2             
iter:   9  22:17:31  -5.96  -4.12  -970.729666    2             
iter:  10  22:18:28  -6.07  -4.13  -970.729572    2             
iter:  11  22:19:24  -6.37  -4.38  -970.729575    2             
iter:  12  22:20:20  -7.33  -4.48  -970.729573    1             
iter:  13  22:21:17  -6.75  -4.53  -970.729573    1             
iter:  14  22:22:13  -7.43  -4.77  -970.729574    1             

Converged after 14 iterations.

Dipole moment: (-18.890670, -1.279522, -1.020658) |e|*Ang

Energy contributions relative to reference atoms: (reference = -1046916.965077)

Kinetic:       +705.262653
Potential:     -895.415845
External:        +0.000000
XC:            -788.354677
Entropy (-ST):   -0.000491
Local:           +7.778541
--------------------------
Free energy:   -970.729819
Extrapolated:  -970.729574

Fermi level: -0.63145

Showing only first 2 kpts
 Kpt  Band  Eigenvalues  Occupancy
  0   462     -1.70339    0.22222
  0   463     -1.70217    0.22222
  0   464      0.22586    0.00004
  0   465      0.35368    0.00001

  1   462     -1.71603    0.44444
  1   463     -1.69187    0.44443
  1   464      0.41896    0.00001
  1   465      0.49323    0.00001



Forces in eV/Ang:
  0 O    -1.90761    0.00592    1.54987
  1 O    -1.91824    0.00042    1.54594
  2 Ti    3.82641   -0.00363    1.94546
  3 Ti    3.83287   -0.02983    1.95026
  4 Ti   -1.92775   -0.03065   -2.02493
  5 Ti   -1.87360   -0.00488   -1.97351
  6 O     0.90050    0.00542   -0.19056
  7 O     0.86043    0.06567   -0.17961
  8 O    -0.71521    0.02195   -0.61224
  9 O    -0.72983    0.00709   -0.67207
 10 O    -0.27649    0.00397   -0.86083
 11 O    -0.24251    0.07386   -0.85685
 12 O     0.03659    0.00566    0.06945
 13 O     0.02515    0.00165    0.07163
 14 Ti    0.10517   -0.00198    0.01056
 15 Ti    0.06457    0.01169    0.02593
 16 Ti    0.00514   -0.01890    0.00487
 17 Ti    0.00547   -0.00538    0.02060
 18 O    -0.05135    0.00136   -0.02055
 19 O    -0.02852   -0.00966   -0.01593
 20 O     0.01768    0.01410   -0.02140
 21 O     0.01858   -0.00731    0.01982
 22 O     0.04220    0.01027    0.04741
 23 O     0.03579   -0.02309    0.04489
 24 O     0.05089    0.00157   -0.00915
 25 O     0.00732    0.01312    0.01407
 26 Ti    0.10433    0.07417    0.11622
 27 Ti    0.05036   -0.01341    0.09390
 28 Ti   -0.19242   -0.07260    0.06529
 29 Ti   -0.04795   -0.00580    0.02766
 30 O     0.00463   -0.03618    0.05037
 31 O    -0.05116   -0.01003   -0.00252
 32 O     0.05652   -0.00278   -0.08272
 33 O     0.07049   -0.00420   -0.15887
 34 O    -0.04441    0.00299    0.03051
 35 O     0.02836    0.02785    0.10940
 36 O    -1.91970   -0.00024    1.55226
 37 O    -1.89431    0.00544    1.59600
 38 Ti    3.67664   -0.03953    1.81831
 39 Ti    3.80829    0.00468    1.90888
 40 Ti   -1.84902    0.00248   -1.84560
 41 Ti   -1.64621   -0.03136   -1.64352
 42 O     0.93736    0.02156   -0.20828
 43 O     0.85098   -0.00563   -0.18038
 44 O    -0.72750    0.00418   -0.67164
 45 O    -0.68164    0.01039   -0.66777
 46 O    -0.31025    0.03040   -0.86965
 47 O    -0.23285   -0.00651   -0.88200
 48 O     0.02834    0.00035    0.01672
 49 O     0.02258    0.00566    0.03765
 50 Ti    0.06529    0.00581   -0.00387
 51 Ti    0.04093   -0.00660    0.04680
 52 Ti    0.00226    0.00649    0.02445
 53 Ti    0.00747   -0.00954    0.05912
 54 O    -0.01966   -0.01536   -0.00323
 55 O     0.00078   -0.00622    0.02254
 56 O    -0.02223    0.00521   -0.04953
 57 O    -0.02749   -0.01863    0.04934
 58 O     0.05254    0.00076    0.06056
 59 O     0.05396    0.00070    0.01299
 60 O     0.00544    0.00252    0.02510
 61 O    -0.02319   -0.00159   -0.03384
 62 Ti   -0.05214    0.08068   -0.01039
 63 Ti   -0.02173    0.01647    0.17398
 64 Ti   -0.22948    0.00010    0.02405
 65 Ti   -0.03094    0.02321   -0.00619
 66 O     0.00918   -0.02215    0.05131
 67 O    -0.04382   -0.00501    0.07033
 68 O     0.05516   -0.00328   -0.06171
 69 O     0.01387   -0.03394   -0.09756
 70 O     0.02270    0.07774    0.10208
 71 O    -0.03575    0.01083    0.04463
 72 O    -1.90680   -0.00498    1.54827
 73 O    -1.89310   -0.00651    1.59179
 74 Ti    3.68997    0.04525    1.83146
 75 Ti    3.83725    0.02708    1.95569
 76 Ti   -1.93260    0.02590   -2.02880
 77 Ti   -1.66142    0.03301   -1.64218
 78 O     0.93462   -0.01962   -0.20861
 79 O     0.86017   -0.06171   -0.18042
 80 O    -0.71430   -0.01490   -0.61390
 81 O    -0.68025    0.00262   -0.66688
 82 O    -0.30791   -0.03416   -0.86865
 83 O    -0.24288   -0.06739   -0.85745
 84 O     0.03668   -0.00615    0.06572
 85 O     0.02393   -0.00025    0.04984
 86 Ti    0.06417   -0.00604   -0.00138
 87 Ti    0.06421   -0.00910    0.02754
 88 Ti    0.00231    0.02621    0.00660
 89 Ti    0.01634   -0.00423    0.06191
 90 O    -0.01775    0.01954   -0.00632
 91 O    -0.03005    0.00273   -0.01147
 92 O     0.02075   -0.00894   -0.02337
 93 O    -0.03230   -0.00722    0.03848
 94 O     0.04573    0.01305    0.06899
 95 O     0.03814    0.01995    0.04138
 96 O     0.05666    0.00135   -0.00767
 97 O    -0.03067    0.01585   -0.05436
 98 Ti   -0.06111    0.09580   -0.04227
 99 Ti    0.04384    0.01259    0.08873
100 Ti   -0.20161    0.05520    0.06461
101 Ti   -0.04591   -0.04466    0.00091
102 O     0.00593   -0.04358    0.05742
103 O    -0.04252    0.00371   -0.00959
104 O     0.04238   -0.00891   -0.08624
105 O     0.01823   -0.04803   -0.12287
106 O     0.03642   -0.06543    0.09062
107 O     0.03322   -0.02764    0.07829
108 V    -0.01665    0.18933   -0.12115
109 V    -0.00154   -0.15395   -0.10313
110 O     0.01338   -0.00204   -0.28767
111 O    -0.04854    0.11845    0.07954
112 O    -0.01979   -0.00780    0.07238
113 O    -0.07141   -0.10304    0.07949
114 O     0.07726   -0.00541    0.07897
115 O     0.07219    0.03625    0.08493
116 H    -0.11332    0.19277    0.18364
117 H    -0.10974   -0.19564    0.18302

System changes: positions 

Initializing position-dependent things.

Density initialized from wave functions
                                               
                                               
                                               
                                               
                                               
                         O                     
                                               
                        O V                    
             O   H            O                
                HOi   O Vi     O               
          O      O    O     OTi     Ti         
               Ti     Oi     O   O             
               O   O      OTi    TiO           
        O   O      Ti      O   O               
            TiTi OO OO  OTiO   Tii             
             O          Ti    O  O   O         
          OTi     Oi   O O   O                 
           O    O     OTi     Oi               
         Ti     Oi     OO   O     O Ti         
         O    OO    OTii    Tii     O          
              Tii     O  O O    OOTi           
             O    OOTi    TO     O             
            TO     O    O      Ti              
[...]
   1 O      3.305699    0.000000    6.000000    ( 0.0000,  0.0000,  0.0000)
   2 Ti     1.412752    0.000000    6.752957    ( 0.0000,  0.0000,  0.0000)
   3 Ti     6.583625    1.911173    6.752957    ( 0.0000,  0.0000,  0.0000)
   4 Ti     9.522250    1.911173    7.640878    ( 0.0000,  0.0000,  0.0000)
   5 Ti     4.351376    0.000000    7.640878    ( 0.0000,  0.0000,  0.0000)
   6 O      9.861551    0.000000    7.505914    ( 0.0000,  0.0000,  0.0000)
   7 O      4.690678    1.911173    7.505914    ( 0.0000,  0.0000,  0.0000)
   8 O      7.629303    1.911173    8.393834    ( 0.0000,  0.0000,  0.0000)
   9 O      2.458430    0.000000    8.393834    ( 0.0000,  0.0000,  0.0000)
  10 O      6.244323    0.000000    6.887921    ( 0.0000,  0.0000,  0.0000)
  11 O      1.073450    1.911173    6.887921    ( 0.0000,  0.0000,  0.0000)
  12 O      9.793133    1.923001    9.602899    ( 0.0000,  0.0000,  0.0000)
  13 O      4.626106    0.008015    9.606654    ( 0.0000,  0.0000,  0.0000)
  14 Ti     2.778206    0.010689   10.404462    ( 0.0000,  0.0000,  0.0000)
  15 Ti     7.949870    1.917117   10.403317    ( 0.0000,  0.0000,  0.0000)
  16 Ti     0.504554    1.932852   11.153824    ( 0.0000,  0.0000,  0.0000)
  17 Ti     5.657681    0.010731   11.170272    ( 0.0000,  0.0000,  0.0000)
  18 O      0.921733    0.010347   11.072915    ( 0.0000,  0.0000,  0.0000)
  19 O      6.089345    1.921794   11.096629    ( 0.0000,  0.0000,  0.0000)
  20 O      9.044731    1.928304   11.984263    ( 0.0000,  0.0000,  0.0000)
  21 O      3.861234    0.015230   11.993938    ( 0.0000,  0.0000,  0.0000)
  22 O      7.567980    0.010075   10.501910    ( 0.0000,  0.0000,  0.0000)
  23 O      2.407394    1.926399   10.496791    ( 0.0000,  0.0000,  0.0000)
  24 O      0.924292    1.914100   13.115272    ( 0.0000,  0.0000,  0.0000)
  25 O      6.078435    0.018096   13.121212    ( 0.0000,  0.0000,  0.0000)
  26 Ti     4.211588   11.482966   14.079320    ( 0.0000,  0.0000,  0.0000)
  27 Ti     9.400862    1.897633   14.051388    ( 0.0000,  0.0000,  0.0000)
  28 Ti     1.850942    1.925141   14.645634    ( 0.0000,  0.0000,  0.0000)
  29 Ti     7.011004    0.020584   14.644043    ( 0.0000,  0.0000,  0.0000)
  30 O      2.372437    0.019155   14.862834    ( 0.0000,  0.0000,  0.0000)
  31 O      7.543769    1.890141   14.813046    ( 0.0000,  0.0000,  0.0000)
  32 O      0.222310    1.924645   15.498339    ( 0.0000,  0.0000,  0.0000)
  33 O      5.394526    0.010872   15.509249    ( 0.0000,  0.0000,  0.0000)
  34 O      9.025587    0.022684   14.068238    ( 0.0000,  0.0000,  0.0000)
  35 O      3.823235    1.934363   14.101603    ( 0.0000,  0.0000,  0.0000)
  36 O      8.476572    5.733518    6.000000    ( 0.0000,  0.0000,  0.0000)
  37 O      3.305699    3.822345    6.000000    ( 0.0000,  0.0000,  0.0000)
  38 Ti     1.412752    3.822345    6.752957    ( 0.0000,  0.0000,  0.0000)
  39 Ti     6.583625    5.733518    6.752957    ( 0.0000,  0.0000,  0.0000)
  40 Ti     9.522250    5.733518    7.640878    ( 0.0000,  0.0000,  0.0000)
  41 Ti     4.351376    3.822345    7.640878    ( 0.0000,  0.0000,  0.0000)
  42 O      9.861551    3.822345    7.505914    ( 0.0000,  0.0000,  0.0000)
  43 O      4.690678    5.733518    7.505914    ( 0.0000,  0.0000,  0.0000)
  44 O      7.629303    5.733518    8.393834    ( 0.0000,  0.0000,  0.0000)
  45 O      2.458430    3.822345    8.393834    ( 0.0000,  0.0000,  0.0000)
  46 O      6.244323    3.822345    6.887921    ( 0.0000,  0.0000,  0.0000)
  47 O      1.073450    5.733518    6.887921    ( 0.0000,  0.0000,  0.0000)
  48 O      9.793647    5.740701    9.608522    ( 0.0000,  0.0000,  0.0000)
  49 O      4.630365    3.835707    9.643905    ( 0.0000,  0.0000,  0.0000)
  50 Ti     2.800676    3.833887   10.349766    ( 0.0000,  0.0000,  0.0000)
  51 Ti     7.958643    5.744319   10.389149    ( 0.0000,  0.0000,  0.0000)
  52 Ti     0.522030    5.742139   11.188417    ( 0.0000,  0.0000,  0.0000)
  53 Ti     5.705085    3.832866   11.279765    ( 0.0000,  0.0000,  0.0000)
  54 O      0.919926    3.833486   11.076761    ( 0.0000,  0.0000,  0.0000)
  55 O      6.095072    5.744445   11.149593    ( 0.0000,  0.0000,  0.0000)
  56 O      9.043681    5.748437   11.975996    ( 0.0000,  0.0000,  0.0000)
  57 O      3.831143    3.839016   12.016587    ( 0.0000,  0.0000,  0.0000)
  58 O      7.553725    3.835597   10.519904    ( 0.0000,  0.0000,  0.0000)
  59 O      2.411946    5.742485   10.498842    ( 0.0000,  0.0000,  0.0000)
  60 O      0.919528    5.749548   13.136908    ( 0.0000,  0.0000,  0.0000)
  61 O      6.008525    3.780271   13.242604    ( 0.0000,  0.0000,  0.0000)
  62 Ti     4.157840    3.852159   13.929132    ( 0.0000,  0.0000,  0.0000)
  63 Ti     9.372937    5.754926   13.995262    ( 0.0000,  0.0000,  0.0000)
  64 Ti     1.824805    5.752637   14.746890    ( 0.0000,  0.0000,  0.0000)
  65 Ti     7.182185    3.828230   14.849978    ( 0.0000,  0.0000,  0.0000)
  66 O      2.331314    3.825929   14.838936    ( 0.0000,  0.0000,  0.0000)
  67 O      7.498584    5.757022   14.645766    ( 0.0000,  0.0000,  0.0000)
  68 O      0.127065    5.757059   15.476265    ( 0.0000,  0.0000,  0.0000)
  69 O      5.212708    3.981195   15.617745    ( 0.0000,  0.0000,  0.0000)
  70 O      8.972140    3.823076   14.085951    ( 0.0000,  0.0000,  0.0000)
  71 O      3.770635    5.754951   14.052911    ( 0.0000,  0.0000,  0.0000)
  72 O      8.476572    9.555862    6.000000    ( 0.0000,  0.0000,  0.0000)
  73 O      3.305699    7.644690    6.000000    ( 0.0000,  0.0000,  0.0000)
  74 Ti     1.412752    7.644690    6.752957    ( 0.0000,  0.0000,  0.0000)
  75 Ti     6.583625    9.555862    6.752957    ( 0.0000,  0.0000,  0.0000)
  76 Ti     9.522250    9.555862    7.640878    ( 0.0000,  0.0000,  0.0000)
  77 Ti     4.351376    7.644690    7.640878    ( 0.0000,  0.0000,  0.0000)
  78 O      9.861551    7.644690    7.505914    ( 0.0000,  0.0000,  0.0000)
  79 O      4.690678    9.555862    7.505914    ( 0.0000,  0.0000,  0.0000)
  80 O      7.629303    9.555862    8.393834    ( 0.0000,  0.0000,  0.0000)
  81 O      2.458430    7.644690    8.393834    ( 0.0000,  0.0000,  0.0000)
  82 O      6.244323    7.644690    6.887921    ( 0.0000,  0.0000,  0.0000)
  83 O      1.073450    9.555862    6.887921    ( 0.0000,  0.0000,  0.0000)
  84 O      9.793588    9.559227    9.602243    ( 0.0000,  0.0000,  0.0000)
  85 O      4.630752    7.646535    9.642961    ( 0.0000,  0.0000,  0.0000)
  86 Ti     2.800236    7.653202   10.350463    ( 0.0000,  0.0000,  0.0000)
  87 Ti     7.950128    9.571633   10.402603    ( 0.0000,  0.0000,  0.0000)
  88 Ti     0.505722    9.552765   11.152747    ( 0.0000,  0.0000,  0.0000)
  89 Ti     5.704248    7.656339   11.277685    ( 0.0000,  0.0000,  0.0000)
  90 O      0.920266    7.653281   11.076728    ( 0.0000,  0.0000,  0.0000)
  91 O      6.089669    9.567030   11.096004    ( 0.0000,  0.0000,  0.0000)
  92 O      9.045290    9.571149   11.982996    ( 0.0000,  0.0000,  0.0000)
  93 O      3.831503    7.659583   12.014899    ( 0.0000,  0.0000,  0.0000)
  94 O      7.554411    7.651195   10.519533    ( 0.0000,  0.0000,  0.0000)
  95 O      2.407423    9.559518   10.496121    ( 0.0000,  0.0000,  0.0000)
  96 O      0.924657    9.587442   13.113779    ( 0.0000,  0.0000,  0.0000)
  97 O      6.007823    7.727371   13.240408    ( 0.0000,  0.0000,  0.0000)
  98 Ti     4.158159    7.652032   13.929837    ( 0.0000,  0.0000,  0.0000)
  99 Ti     9.401567    9.614514   14.047699    ( 0.0000,  0.0000,  0.0000)
 100 Ti     1.849633    9.578340   14.645430    ( 0.0000,  0.0000,  0.0000)
 101 Ti     7.184343    7.683873   14.842953    ( 0.0000,  0.0000,  0.0000)
 102 O      2.329819    7.678401   14.841762    ( 0.0000,  0.0000,  0.0000)
 103 O      7.546356    9.621280   14.803746    ( 0.0000,  0.0000,  0.0000)
 104 O      0.220597    9.594096   15.496192    ( 0.0000,  0.0000,  0.0000)
 105 O      5.212076    7.576699   15.620084    ( 0.0000,  0.0000,  0.0000)
 106 O      8.975173    7.686265   14.083626    ( 0.0000,  0.0000,  0.0000)
 107 O      3.817213    9.571277   14.094910    ( 0.0000,  0.0000,  0.0000)
 108 V      5.830570    4.157000   17.300627    ( 0.0000,  0.0000,  0.0000)
 109 V      5.836987    7.413343   17.301804    ( 0.0000,  0.0000,  0.0000)
 110 O      2.501850    5.733974   16.919697    ( 0.0000,  0.0000,  0.0000)
 111 O      5.337325    8.578338   18.271760    ( 0.0000,  0.0000,  0.0000)
 112 O      5.557296    5.785812   18.027886    ( 0.0000,  0.0000,  0.0000)
 113 O      5.313163    3.006892   18.277230    ( 0.0000,  0.0000,  0.0000)
 114 O      7.470663    3.899482   16.744678    ( 0.0000,  0.0000,  0.0000)
 115 O      7.477737    7.638750   16.739162    ( 0.0000,  0.0000,  0.0000)
 116 H      2.130732    6.503569   17.395232    ( 0.0000,  0.0000,  0.0000)
 117 H      2.126780    4.951834   17.371564    ( 0.0000,  0.0000,  0.0000)

Unit cell:
           periodic     x           y           z      points  spacing
  1. axis:    yes   10.341746    0.000000    0.000000    54     0.1915
  2. axis:    yes   -0.000000   11.467000    0.000000    60     0.1911
  3. axis:    no     0.000000    0.000000   23.497201   125     0.1880

  Lengths:  10.341746  11.467000  23.497201
  Angles:   90.000000  90.000000  90.000000

Effective grid spacing dv^(1/3) = 0.1902

                     log10-error:    total        iterations:
           time      wfs    density  energy       fermi  poisson
iter:   1  21:35:11  -6.34   +inf  -970.889310    1             
iter:   2  21:36:07  -7.27  -4.89  -970.889309    1             
iter:   3  21:37:03  -7.11  -4.91  -970.889305    1             
iter:   4  21:37:59  -7.59  -5.19  -970.889306    1             

Converged after 4 iterations.

Dipole moment: (-18.270614, -15.660964, -1.017980) |e|*Ang

Energy contributions relative to reference atoms: (reference = -1046916.965077)

Kinetic:       +686.703508
Potential:     -880.729117
External:        +0.000000
XC:            -784.651166
Entropy (-ST):   -0.000468
Local:           +7.787703
--------------------------
Free energy:   -970.889539
Extrapolated:  -970.889306

Fermi level: -0.62971

Showing only first 2 kpts
 Kpt  Band  Eigenvalues  Occupancy
  0   462     -1.70658    0.22222
  0   463     -1.70627    0.22222
  0   464      0.22751    0.00004
  0   465      0.37213    0.00001

  1   462     -1.72287    0.44444
  1   463     -1.69579    0.44443
  1   464      0.42461    0.00001
  1   465      0.50881    0.00001



Forces in eV/Ang:
  0 O    -1.84379    0.00706    1.56880
  1 O    -1.84322    0.00138    1.56466
  2 Ti    3.87216    0.00051    2.03587
  3 Ti    3.86788   -0.02580    2.01986
  4 Ti   -2.00258   -0.03161   -1.88414
  5 Ti   -1.97174   -0.00204   -1.84368
  6 O     0.88729    0.01156   -0.16387
  7 O     0.84552    0.07821   -0.14871
  8 O    -0.65541    0.02962   -0.49573
  9 O    -0.65817    0.01314   -0.56717
 10 O    -0.28889   -0.00003   -0.90205
 11 O    -0.25189    0.08847   -0.90167
 12 O     0.00186    0.00106   -0.00069
 13 O     0.00180    0.00163   -0.00113
 14 Ti   -0.00334   -0.00093   -0.00249
 15 Ti   -0.00114    0.00288   -0.00164
 16 Ti    0.00208    0.00023    0.00036
 17 Ti    0.00242   -0.00006    0.00185
 18 O     0.00044    0.00108   -0.00252
 19 O     0.00129    0.00090   -0.00157
 20 O     0.00169    0.00136    0.00094
 21 O     0.00213   -0.00002   -0.00018
 22 O     0.00016    0.00114    0.00037
 23 O     0.00056   -0.00157    0.00136
 24 O     0.00020    0.00201   -0.00190
 25 O     0.00059    0.00148    0.00316
 26 Ti    0.00220    0.00101    0.00241
 27 Ti    0.00194    0.00263   -0.00078
 28 Ti    0.00229    0.00235    0.00119
 29 Ti   -0.00087    0.00055   -0.00034
 30 O    -0.00006    0.00092    0.00199
 31 O    -0.00156    0.00431    0.00170
 32 O    -0.00073    0.00581   -0.00383
 33 O     0.00468   -0.00155   -0.00294
 34 O     0.00226    0.00189    0.00254
 35 O     0.00392   -0.00078    0.00047
 36 O    -1.86360    0.00097    1.56510
 37 O    -1.83943    0.00764    1.61558
 38 Ti    3.68067   -0.04845    1.86100
 39 Ti    3.85192    0.00174    1.98100
 40 Ti   -1.93516   -0.00061   -1.71297
 41 Ti   -1.68198   -0.03010   -1.50792
 42 O     0.93550    0.02410   -0.18998
 43 O     0.83146    0.00803   -0.15370
 44 O    -0.68468    0.01260   -0.55958
 45 O    -0.64898    0.02086   -0.54277
 46 O    -0.33091    0.02728   -0.84807
 47 O    -0.23567   -0.00145   -0.90541
 48 O     0.00252    0.00153   -0.00086
 49 O     0.00033    0.00234    0.00057
 50 Ti   -0.00197    0.00215   -0.00081
 51 Ti    0.00126    0.00036   -0.00332
 52 Ti    0.00077    0.00183    0.00142
 53 Ti    0.00022    0.00087    0.00103
 54 O    -0.00014   -0.00000    0.00045
 55 O     0.00179    0.00083   -0.00222
 56 O     0.00148    0.00234    0.00187
 57 O     0.00137    0.00651    0.00080
 58 O     0.00142    0.00034   -0.00037
 59 O    -0.00174    0.00084   -0.00346
 60 O     0.00205    0.00210    0.00339
 61 O     0.00157    0.00550    0.00036
 62 Ti    0.00051    0.00315    0.00299
 63 Ti    0.00254    0.00203   -0.00199
 64 Ti    0.00284    0.00288   -0.00010
 65 Ti   -0.00038    0.00483    0.00410
 66 O     0.00355    0.00017    0.00050
 67 O    -0.00168    0.00254    0.00230
 68 O    -0.00192    0.00419   -0.00400
 69 O     0.00118    0.00002    0.00309
 70 O    -0.00204    0.00262    0.00047
 71 O     0.00557    0.00129    0.00361
 72 O    -1.84607   -0.00471    1.56783
 73 O    -1.84036   -0.00562    1.61398
 74 Ti    3.68384    0.05183    1.86347
 75 Ti    3.86706    0.02840    2.01752
 76 Ti   -1.99884    0.02679   -1.88748
 77 Ti   -1.68543    0.03013   -1.51189
 78 O     0.93458   -0.00544   -0.18964
 79 O     0.84591   -0.05644   -0.14838
 80 O    -0.65507   -0.00183   -0.49428
 81 O    -0.64852    0.00361   -0.54422
 82 O    -0.32961   -0.02675   -0.84968
 83 O    -0.25221   -0.08684   -0.90064
 84 O     0.00110   -0.00068   -0.00040
 85 O    -0.00004   -0.00050    0.00084
 86 Ti   -0.00125   -0.00235   -0.00062
 87 Ti   -0.00191   -0.00250   -0.00076
 88 Ti    0.00161    0.00024    0.00106
 89 Ti    0.00009   -0.00003    0.00016
 90 O    -0.00129    0.00181    0.00002
 91 O     0.00143    0.00119   -0.00060
 92 O     0.00116    0.00136    0.00031
 93 O     0.00007   -0.00333   -0.00008
 94 O     0.00114    0.00033    0.00002
 95 O    -0.00008    0.00251    0.00099
 96 O     0.00279    0.00060   -0.00146
 97 O     0.00210    0.00230   -0.00354
 98 Ti    0.00013    0.00162    0.00255
 99 Ti    0.00142   -0.00206   -0.00024
100 Ti    0.00222   -0.00007    0.00084
101 Ti    0.00077   -0.00161    0.00441
102 O     0.00252    0.00292    0.00187
103 O     0.00143    0.00133    0.00116
104 O    -0.00134   -0.00438   -0.00085
105 O     0.00404    0.00492   -0.00116
106 O     0.00058    0.00174   -0.00131
107 O     0.00287    0.00182    0.00104
108 V    -0.00083    0.00274    0.00569
109 V     0.00221   -0.00368   -0.00476
110 O    -0.00171   -0.00554    0.00717
111 O    -0.00043    0.00125    0.00145
112 O    -0.00417    0.00404    0.00357
113 O     0.00110    0.00943    0.00287
114 O    -0.00138    0.00558    0.00334
115 O    -0.00107    0.00288    0.00154
116 H    -0.00192    0.00314   -0.00394
117 H     0.00534    0.00439   -0.00535

Timing:                                      incl.     excl.
-------------------------------------------------------------------
Density initialized from wave functions:   278.476   278.474   0.3% |
 Symmetrize density:                         0.002     0.002   0.0% |
Forces:                                   1872.617  1872.617   2.1% ||
Hamiltonian:                               105.447     1.909   0.0% |
 Atomic:                                    26.426     0.137   0.0% |
  XC Correction:                            26.289    26.289   0.0% |
 Calculate atomic Hamiltonians:             49.847    49.847   0.1% |
 Communicate:                               11.292    11.292   0.0% |
 Initialize Hamiltonian:                     0.000     0.000   0.0% |
 Poisson:                                    0.108     0.108   0.0% |
 XC 3D grid:                                15.864    15.864   0.0% |
LCAO initialization:                       190.627     1.911   0.0% |
 LCAO eigensolver:                          67.248     0.102   0.0% |
  Calculate projections:                     0.000     0.000   0.0% |
  DenseAtomicCorrection:                     0.001     0.001   0.0% |
  Distribute overlap matrix:                 5.197     5.197   0.0% |
  Orbital Layouts:                          55.655    55.655   0.1% |
  Potential matrix:                          0.039     0.039   0.0% |
  Sum over cells:                            6.254     6.254   0.0% |
 LCAO to grid:                             116.197   116.197   0.1% |
 Set positions (LCAO WFS):                   5.272     4.318   0.0% |
  Basic WFS set positions:                   0.003     0.003   0.0% |
  Basis functions set positions:             0.001     0.001   0.0% |
  P tci:                                     0.007     0.007   0.0% |
  ST tci:                                    0.615     0.615   0.0% |
  mktci:                                     0.327     0.327   0.0% |
PWDescriptor:                                0.184     0.184   0.0% |
Redistribute:                                0.191     0.191   0.0% |
SCF-cycle:                               85381.050     2.275   0.0% |
 Davidson:                               81148.855 19378.502  21.9% |--------|
  Apply H:                               11706.132 11257.320  12.7% |----|
   HMM T:                                  448.812   448.812   0.5% |
  Subspace diag:                          9056.490     1.009   0.0% |
   calc_h_matrix:                         5320.057  1427.394   1.6% ||
    Apply H:                              3892.663  3730.661   4.2% |-|
     HMM T:                                162.002   162.002   0.2% |
   diagonalize:                           1109.512  1109.512   1.3% ||
   rotate_psi:                            2625.912  2625.912   3.0% ||
  calc. matrices:                        18224.066 10524.190  11.9% |----|
   Apply H:                               7699.876  7423.592   8.4% |--|
    HMM T:                                 276.285   276.285   0.3% |
  diagonalize:                           17225.115 17225.115  19.5% |-------|
  rotate_psi:                             5558.551  5558.551   6.3% |--|
 Density:                                 2562.380     0.040   0.0% |
  Atomic density matrices:                  16.717    16.717   0.0% |
  Mix:                                     525.020   525.020   0.6% |
  Multipole moments:                         0.500     0.500   0.0% |
  Pseudo density:                         2020.103  2020.074   2.3% ||
   Symmetrize density:                       0.029     0.029   0.0% |
 Hamiltonian:                              957.818    17.484   0.0% |
  Atomic:                                  240.713     1.313   0.0% |
   XC Correction:                          239.400   239.400   0.3% |
  Calculate atomic Hamiltonians:           453.056   453.056   0.5% |
  Communicate:                             102.310   102.310   0.1% |
  Poisson:                                   0.935     0.935   0.0% |
  XC 3D grid:                              143.319   143.319   0.2% |
 Orthonormalize:                           709.723     0.162   0.0% |
  calc_s_matrix:                            68.992    68.992   0.1% |
  inverse-cholesky:                         58.276    58.276   0.1% |
  projections:                             453.937   453.937   0.5% |
  rotate_psi_s:                            128.357   128.357   0.1% |
Set symmetry:                                0.001     0.001   0.0% |
Other:                                     521.829   521.829   0.6% |
-------------------------------------------------------------------
Total:                                             88350.422 100.0%

Memory usage: 1.36 GiB
Date: Sat May 25 21:38:12 2019
