
  ___ ___ ___ _ _ _  
 |   |   |_  | | | | 
 | | | | | . | | | | 
 |__ |  _|___|_____|  1.5.1
 |___|_|             

User:   siva@s81n32.grendel.cscaa.dk
Date:   Fri May 24 10:25:24 2019
Arch:   x86_64
Pid:    6766
Python: 3.6.3
gpaw:   /home/siva/gpaw-1.5.1/gpaw
_gpaw:  /home/siva/gpaw-1.5.1/build/bin.linux-x86_64-3.6/gpaw-python
ase:    /home/siva/env1.5/lib/python3.6/site-packages/ase (version 3.17.0)
numpy:  /home/siva/env1.5/lib/python3.6/site-packages/numpy (version 1.16.0)
scipy:  /home/siva/env1.5/lib/python3.6/site-packages/scipy (version 1.2.0)
units:  Angstrom and eV
cores:  24
Extra parameters: {'blacs': True}

Input parameters:
  basis: dzp
  kpts: [3 3 1]
  mode: {ecut: 500.0,
         gammacentered: False,
         name: pw}
  xc: PBE

System changes: positions, numbers, cell, pbc, initial_charges, initial_magmoms 

Initialize ...

O-setup:
  name: Oxygen
  id: 32ecd46bf208036f09c70b0ec9a88b78
  Z: 8
  valence: 6
  core: 2
  charge: 0.0
  file: /home/wido/sw/gpaw/basis/gpaw-setups-0.9.20000/O.PBE.gz
  cutoffs: 0.67(comp), 1.17(filt), 0.83(core), lmax=2
  valence states:
                energy  radius
    2s(2.00)   -23.961   0.688
    2p(4.00)    -9.029   0.598
    *s           3.251   0.688
    *p          18.182   0.598
    *d           0.000   0.619

  LCAO basis set for O:
    Name: dzp
    File: /home/wido/sw/gpaw/basis/gpaw-setups-0.9.20000/O.dzp.basis.gz
    Number of radial functions: 5
    Number of spherical harmonics: 13
      l=0, rc=4.3438 Bohr: 2s-sz confined orbital
      l=1, rc=5.3906 Bohr: 2p-sz confined orbital
      l=0, rc=2.2969 Bohr: 2s-dz split-valence wave
      l=1, rc=2.8906 Bohr: 2p-dz split-valence wave
      l=2, rc=5.3906 Bohr: d-type Gaussian polarization

Ti-setup:
  name: Titanium
  id: d282db07e62ae71292040bf25b25ccdd
  Z: 22
  valence: 12
  core: 10
  charge: 0.0
  file: /home/wido/sw/gpaw/basis/gpaw-setups-0.9.20000/Ti.PBE.gz
  cutoffs: 1.22(comp), 2.23(filt), 1.02(core), lmax=2
  valence states:
                energy  radius
    3s(2.00)   -62.623   1.270
    4s(2.00)    -4.466   1.270
    3p(6.00)   -38.862   1.058
    4p(0.00)    -1.466   1.058
    3d(2.00)    -4.258   1.058
    *d          22.953   1.058

  LCAO basis set for Ti:
    Name: dzp
    File: /home/wido/sw/gpaw/basis/gpaw-setups-0.9.20000/Ti.dzp.basis.gz
    Number of radial functions: 11
    Number of spherical harmonics: 29
      l=0, rc=3.4375 Bohr: 3s-sz confined orbital
      l=0, rc=9.9062 Bohr: 4s-sz confined orbital
      l=1, rc=3.8906 Bohr: 3p-sz confined orbital
      l=1, rc=13.1094 Bohr: 4p-sz confined orbital
      l=2, rc=6.6250 Bohr: 3d-sz confined orbital
      l=0, rc=2.1406 Bohr: 3s-dz split-valence wave
      l=0, rc=6.0156 Bohr: 4s-dz split-valence wave
      l=1, rc=2.3125 Bohr: 3p-dz split-valence wave
      l=1, rc=8.1094 Bohr: 4p-dz split-valence wave
      l=2, rc=3.8594 Bohr: 3d-dz split-valence wave
      l=1, rc=9.9062 Bohr: p-type Gaussian polarization

V-setup:
  name: Vanadium
  id: a8354638d66c808f8c867a10b63fd727
  Z: 23
  valence: 13
  core: 10
  charge: 0.0
  file: /home/wido/sw/gpaw/basis/gpaw-setups-0.9.20000/V.PBE.gz
  cutoffs: 1.19(comp), 2.14(filt), 0.96(core), lmax=2
  valence states:
                energy  radius
    3s(2.00)   -70.222   1.254
    4s(2.00)    -4.702   1.254
    3p(6.00)   -44.043   1.281
    4p(0.00)    -1.444   1.281
    3d(3.00)    -5.164   1.169
    *d          22.047   1.169

  LCAO basis set for V:
    Name: dzp
    File: /home/wido/sw/gpaw/basis/gpaw-setups-0.9.20000/V.dzp.basis.gz
    Number of radial functions: 11
    Number of spherical harmonics: 29
      l=0, rc=3.2656 Bohr: 3s-sz confined orbital
      l=0, rc=9.5312 Bohr: 4s-sz confined orbital
      l=1, rc=3.6719 Bohr: 3p-sz confined orbital
      l=1, rc=12.8750 Bohr: 4p-sz confined orbital
      l=2, rc=6.0938 Bohr: 3d-sz confined orbital
      l=0, rc=2.0625 Bohr: 3s-dz split-valence wave
      l=0, rc=5.7656 Bohr: 4s-dz split-valence wave
      l=1, rc=2.4062 Bohr: 3p-dz split-valence wave
      l=1, rc=7.8906 Bohr: 4p-dz split-valence wave
      l=2, rc=3.6562 Bohr: 3d-dz split-valence wave
      l=1, rc=9.5312 Bohr: p-type Gaussian polarization

Reference energy: -1044851.132452

Spin-paired calculation

Occupation numbers:
  Fermi-Dirac: width=0.1000 eV

Convergence criteria:
  Maximum total energy change: 0.0005 eV / electron
  Maximum integral of absolute density change: 0.0001 electrons
  Maximum integral of absolute eigenstate change: 4e-08 eV^2
  Maximum number of iterations: 333

Symmetries present (total): 1

  ( 1  0  0)
  ( 0  1  0)
  ( 0  0  1)

9 k-points: 3 x 3 x 1 Monkhorst-Pack grid
5 k-points in the irreducible part of the Brillouin zone
       k-points in crystal coordinates                weights
   0:     0.00000000    0.00000000    0.00000000          1/9
   1:     0.00000000    0.33333333    0.00000000          2/9
   2:     0.33333333   -0.33333333    0.00000000          2/9
   3:     0.33333333    0.00000000    0.00000000          2/9
   4:     0.33333333    0.33333333    0.00000000          2/9

Wave functions: Plane wave expansion
  Cutoff energy: 500.000 eV
  Number of coefficients (min, max): 70673, 70768
  Pulay-stress correction: 0.000000 eV/Ang^3 (de/decut=0.000000)
  Using FFTW library
  ScaLapack parameters: grid=1x1, blocksize=None
  Wavefunction extrapolation:
    Improved wavefunction reuse through dual PAW basis 

Eigensolver
   Davidson(niter=2, smin=None, normalize=True) 

Densities:
  Coarse grid: 54*60*125 grid
  Fine grid: 108*120*250 grid
  Total Charge: 0.000000 

Density mixing:
  Method: separate
  Backend: pulay
  Linear mixing parameter: 0.05
  Mixing with 5 old densities
  Damping of long wave oscillations: 50 

Hamiltonian:
  XC and Coulomb potentials evaluated on a 108*120*250 grid
  Using the PBE Exchange-Correlation functional
 

XC parameters: PBE with 2 nearest neighbor stencil

Memory estimate:
  Process memory now: 276.57 MiB
  Calculator: 3689.68 MiB
    Density: 9.56 MiB
      Arrays: 3.37 MiB
      Localized functions: 4.89 MiB
      Mixer: 1.30 MiB
    Hamiltonian: 2.34 MiB
      Arrays: 2.21 MiB
      XC: 0.00 MiB
      Poisson: 0.00 MiB
      vbar: 0.13 MiB
    Wavefunctions: 3677.78 MiB
      Arrays psit_nG: 3001.94 MiB
      Eigensolver: 652.97 MiB
      Projections: 2.98 MiB
      Projectors: 2.92 MiB
      PW-descriptor: 16.97 MiB

Total number of cores used: 24
Domain decomposition: 2 x 2 x 6

Number of atoms: 115
Number of atomic orbitals: 2103
Number of bands in calculation: 556
Bands to converge: occupied states only
Number of valence electrons: 920

... initialized

Initializing position-dependent things.

Density initialized from atomic densities
Creating initial wave functions:
  556 bands from LCAO basis set

                                                
                                                
                                                
                                                
                                                
                                                
                          O                     
                            O                   
              O     O   O V   O Ti              
                       O O      O    O          
                  Oi   OV    O      Ti          
           O   O            O Ti  O             
               Ti     Oi   O O                  
         O     O O  OTi    Tii   OTi            
             Tii    Ti    OOO   O               
              O   OO    O Ti   TiOi             
          O Ti   TiOi     O    O     O          
                 O     Ti     TiO               
            O   TiO      O  O  O   O Ti         
         Ti     O    O Oi    Ti     O           
              OTi          OTiO   O             
             O O    O O         O Ti            
                    Ti     Oi     O             
             Oi     O    O      Ti              
           O      Ti    Ti     O                
          Ti          O      O                  
               O                                
                                                
                                                
                                                
                                                

Positions:
   0 O      8.476572    1.911173    6.000000    ( 0.0000,  0.0000,  0.0000)
   1 O      3.305699    0.000000    6.000000    ( 0.0000,  0.0000,  0.0000)
   2 Ti     1.412752    0.000000    6.752957    ( 0.0000,  0.0000,  0.0000)
   3 Ti     6.583625    1.911173    6.752957    ( 0.0000,  0.0000,  0.0000)
   4 Ti     9.522250    1.911173    7.640878    ( 0.0000,  0.0000,  0.0000)
   5 Ti     4.351376    0.000000    7.640878    ( 0.0000,  0.0000,  0.0000)
   6 O      9.861551    0.000000    7.505914    ( 0.0000,  0.0000,  0.0000)
   7 O      4.690678    1.911173    7.505914    ( 0.0000,  0.0000,  0.0000)
   8 O      7.629303    1.911173    8.393834    ( 0.0000,  0.0000,  0.0000)
   9 O      2.458430    0.000000    8.393834    ( 0.0000,  0.0000,  0.0000)
  10 O      6.244323    0.000000    6.887921    ( 0.0000,  0.0000,  0.0000)
  11 O      1.073450    1.911173    6.887921    ( 0.0000,  0.0000,  0.0000)
  12 O      9.800172    1.918734    9.579146    ( 0.0000,  0.0000,  0.0000)
  13 O      4.633815   11.470629    9.578381    ( 0.0000,  0.0000,  0.0000)
  14 Ti     2.743084   11.473520   10.389090    ( 0.0000,  0.0000,  0.0000)
  15 Ti     7.921907    1.908176   10.393591    ( 0.0000,  0.0000,  0.0000)
  16 Ti     0.482027    1.931413   11.119352    ( 0.0000,  0.0000,  0.0000)
  17 Ti     5.639134   11.475252   11.128112    ( 0.0000,  0.0000,  0.0000)
  18 O      0.904815   11.473058   11.075505    ( 0.0000,  0.0000,  0.0000)
  19 O      6.072615    1.919359   11.088606    ( 0.0000,  0.0000,  0.0000)
  20 O      9.029620    1.921664   11.939021    ( 0.0000,  0.0000,  0.0000)
  21 O      3.852074    0.014177   11.939904    ( 0.0000,  0.0000,  0.0000)
  22 O      7.547379   11.472156   10.448116    ( 0.0000,  0.0000,  0.0000)
  23 O      2.384560    1.927464   10.447454    ( 0.0000,  0.0000,  0.0000)
  24 O      0.928604    1.910274   13.076187    ( 0.0000,  0.0000,  0.0000)
  25 O      6.093963   11.473386   13.073457    ( 0.0000,  0.0000,  0.0000)
  26 Ti     4.201754   -0.020335   14.023383    ( 0.0000,  0.0000,  0.0000)
  27 Ti     9.415926    1.869492   14.023141    ( 0.0000,  0.0000,  0.0000)
  28 Ti     1.857597    1.930148   14.597974    ( 0.0000,  0.0000,  0.0000)
  29 Ti     6.998027   11.484206   14.600985    ( 0.0000,  0.0000,  0.0000)
  30 O      2.387505   11.487304   14.818563    ( 0.0000,  0.0000,  0.0000)
  31 O      7.569528    1.878944   14.787096    ( 0.0000,  0.0000,  0.0000)
  32 O      0.229378    1.908727   15.453883    ( 0.0000,  0.0000,  0.0000)
  33 O      5.390005   11.473511   15.452604    ( 0.0000,  0.0000,  0.0000)
  34 O      9.046341   11.483758   13.939118    ( 0.0000,  0.0000,  0.0000)
  35 O      3.834591    1.923576   13.946202    ( 0.0000,  0.0000,  0.0000)
  36 O      8.476572    5.733518    6.000000    ( 0.0000,  0.0000,  0.0000)
  37 O      3.305699    3.822345    6.000000    ( 0.0000,  0.0000,  0.0000)
  38 Ti     1.412752    3.822345    6.752957    ( 0.0000,  0.0000,  0.0000)
  39 Ti     6.583625    5.733518    6.752957    ( 0.0000,  0.0000,  0.0000)
  40 Ti     9.522250    5.733518    7.640878    ( 0.0000,  0.0000,  0.0000)
  41 Ti     4.351376    3.822345    7.640878    ( 0.0000,  0.0000,  0.0000)
  42 O      9.861551    3.822345    7.505914    ( 0.0000,  0.0000,  0.0000)
  43 O      4.690678    5.733518    7.505914    ( 0.0000,  0.0000,  0.0000)
  44 O      7.629303    5.733518    8.393834    ( 0.0000,  0.0000,  0.0000)
  45 O      2.458430    3.822345    8.393834    ( 0.0000,  0.0000,  0.0000)
  46 O      6.244323    3.822345    6.887921    ( 0.0000,  0.0000,  0.0000)
  47 O      1.073450    5.733518    6.887921    ( 0.0000,  0.0000,  0.0000)
  48 O      9.805894    5.737605    9.589748    ( 0.0000,  0.0000,  0.0000)
  49 O      4.632400    3.826316    9.617175    ( 0.0000,  0.0000,  0.0000)
  50 Ti     2.773699    3.828496   10.338973    ( 0.0000,  0.0000,  0.0000)
  51 Ti     7.958256    5.740518   10.359328    ( 0.0000,  0.0000,  0.0000)
  52 Ti     0.524027    5.739122   11.168307    ( 0.0000,  0.0000,  0.0000)
  53 Ti     5.693798    3.842174   11.219315    ( 0.0000,  0.0000,  0.0000)
  54 O      0.900575    3.830370   11.082776    ( 0.0000,  0.0000,  0.0000)
  55 O      6.073943    5.740000   11.111890    ( 0.0000,  0.0000,  0.0000)
  56 O      9.061272    5.743589   11.940360    ( 0.0000,  0.0000,  0.0000)
  57 O      3.826250    3.875766   11.977704    ( 0.0000,  0.0000,  0.0000)
  58 O      7.540116    3.838016   10.464136    ( 0.0000,  0.0000,  0.0000)
  59 O      2.385716    5.739897   10.440917    ( 0.0000,  0.0000,  0.0000)
  60 O      0.999784    5.749059   13.123702    ( 0.0000,  0.0000,  0.0000)
  61 O      6.018689    3.775809   13.195027    ( 0.0000,  0.0000,  0.0000)
  62 Ti     4.165792    3.794877   13.888249    ( 0.0000,  0.0000,  0.0000)
  63 Ti     9.422184    5.756163   13.929935    ( 0.0000,  0.0000,  0.0000)
  64 Ti     1.845224    5.749457   14.775742    ( 0.0000,  0.0000,  0.0000)
  65 Ti     7.237662    3.836161   14.707978    ( 0.0000,  0.0000,  0.0000)
  66 O      2.348781    3.805275   14.783544    ( 0.0000,  0.0000,  0.0000)
  67 O      7.524695    5.749781   14.407024    ( 0.0000,  0.0000,  0.0000)
  68 O      0.151461    5.752003   15.451136    ( 0.0000,  0.0000,  0.0000)
  69 O      5.191474    3.750536   15.583183    ( 0.0000,  0.0000,  0.0000)
  70 O      9.012216    3.809829   13.964005    ( 0.0000,  0.0000,  0.0000)
  71 O      3.856352    5.761533   14.127694    ( 0.0000,  0.0000,  0.0000)
  72 O      8.476572    9.555862    6.000000    ( 0.0000,  0.0000,  0.0000)
  73 O      3.305699    7.644690    6.000000    ( 0.0000,  0.0000,  0.0000)
  74 Ti     1.412752    7.644690    6.752957    ( 0.0000,  0.0000,  0.0000)
  75 Ti     6.583625    9.555862    6.752957    ( 0.0000,  0.0000,  0.0000)
  76 Ti     9.522250    9.555862    7.640878    ( 0.0000,  0.0000,  0.0000)
  77 Ti     4.351376    7.644690    7.640878    ( 0.0000,  0.0000,  0.0000)
  78 O      9.861551    7.644690    7.505914    ( 0.0000,  0.0000,  0.0000)
  79 O      4.690678    9.555862    7.505914    ( 0.0000,  0.0000,  0.0000)
  80 O      7.629303    9.555862    8.393834    ( 0.0000,  0.0000,  0.0000)
  81 O      2.458430    7.644690    8.393834    ( 0.0000,  0.0000,  0.0000)
  82 O      6.244323    7.644690    6.887921    ( 0.0000,  0.0000,  0.0000)
  83 O      1.073450    9.555862    6.887921    ( 0.0000,  0.0000,  0.0000)
  84 O      9.798601    9.557173    9.579132    ( 0.0000,  0.0000,  0.0000)
  85 O      4.632478    7.647446    9.618341    ( 0.0000,  0.0000,  0.0000)
  86 Ti     2.776535    7.652884   10.338270    ( 0.0000,  0.0000,  0.0000)
  87 Ti     7.924915    9.572889   10.391779    ( 0.0000,  0.0000,  0.0000)
  88 Ti     0.482476    9.543445   11.120152    ( 0.0000,  0.0000,  0.0000)
  89 Ti     5.694481    7.646346   11.222486    ( 0.0000,  0.0000,  0.0000)
  90 O      0.900161    7.650076   11.081141    ( 0.0000,  0.0000,  0.0000)
  91 O      6.072324    9.558820   11.089389    ( 0.0000,  0.0000,  0.0000)
  92 O      9.030075    9.565459   11.937693    ( 0.0000,  0.0000,  0.0000)
  93 O      3.824884    7.626242   11.978786    ( 0.0000,  0.0000,  0.0000)
  94 O      7.539661    7.640797   10.465253    ( 0.0000,  0.0000,  0.0000)
  95 O      2.385404    9.551912   10.447111    ( 0.0000,  0.0000,  0.0000)
  96 O      0.928903    9.577409   13.075077    ( 0.0000,  0.0000,  0.0000)
  97 O      6.013573    7.704890   13.199219    ( 0.0000,  0.0000,  0.0000)
  98 Ti     4.161092    7.621919   13.892110    ( 0.0000,  0.0000,  0.0000)
  99 Ti     9.421230    9.634656   14.023700    ( 0.0000,  0.0000,  0.0000)
 100 Ti     1.863314    9.571142   14.594939    ( 0.0000,  0.0000,  0.0000)
 101 Ti     7.232298    7.677598   14.710703    ( 0.0000,  0.0000,  0.0000)
 102 O      2.347237    7.698429   14.788799    ( 0.0000,  0.0000,  0.0000)
 103 O      7.572899    9.619955   14.787413    ( 0.0000,  0.0000,  0.0000)
 104 O      0.230645    9.615434   15.452585    ( 0.0000,  0.0000,  0.0000)
 105 O      5.192727    7.821497   15.584671    ( 0.0000,  0.0000,  0.0000)
 106 O      9.012312    7.690124   13.964792    ( 0.0000,  0.0000,  0.0000)
 107 O      3.823559    9.590439   13.943029    ( 0.0000,  0.0000,  0.0000)
 108 V      5.862121    7.401477   17.171309    ( 0.0000,  0.0000,  0.0000)
 109 V      5.872879    4.116454   17.177131    ( 0.0000,  0.0000,  0.0000)
 110 O      7.522530    4.070902   16.581854    ( 0.0000,  0.0000,  0.0000)
 111 O      5.588572    8.519620   18.281231    ( 0.0000,  0.0000,  0.0000)
 112 O      5.217432    5.757889   17.657808    ( 0.0000,  0.0000,  0.0000)
 113 O      5.585563    2.992206   18.278989    ( 0.0000,  0.0000,  0.0000)
 114 O      7.515674    7.420077   16.577656    ( 0.0000,  0.0000,  0.0000)

Unit cell:
           periodic     x           y           z      points  spacing
  1. axis:    yes   10.341746    0.000000    0.000000    54     0.1915
  2. axis:    yes   -0.000000   11.467000    0.000000    60     0.1911
  3. axis:    no     0.000000    0.000000   23.497201   125     0.1880

  Lengths:  10.341746  11.467000  23.497201
  Angles:   90.000000  90.000000  90.000000

Effective grid spacing dv^(1/3) = 0.1902

                     log10-error:    total        iterations:
           time      wfs    density  energy       fermi  poisson
iter:   1  10:30:25  -0.12   +inf  -1092.189779    8             
iter:   2  10:31:35  -1.02  -0.96  -1045.054511    2             
iter:   3  10:32:45  +0.45  -1.01  -950.519521    6             
iter:   4  10:33:55  -0.97  -1.35  -963.356440    3             
iter:   5  10:35:05  -1.09  -1.28  -980.226357    2             
iter:   6  10:36:21  -0.10  -1.25  -970.249640    32            
iter:   7  10:37:31  -0.66  -1.64  -968.893120    4             
iter:   8  10:38:41  -1.68  -1.63  -966.041402    3             
iter:   9  10:39:51  -0.59  -1.66  -957.453598    3             
iter:  10  10:41:06  -1.14  -1.70  -956.284860    3             
iter:  11  10:42:16  -2.12  -2.06  -955.960143    3             
iter:  12  10:43:26  -2.29  -2.20  -955.925307    3             
iter:  13  10:44:36  -2.18  -2.33  -955.687054    2             
iter:  14  10:45:51  -3.01  -2.45  -955.682261    2             
iter:  15  10:47:01  -2.71  -2.49  -955.723267    3             
iter:  16  10:48:11  -2.80  -2.54  -955.650432    3             
iter:  17  10:49:21  -3.72  -2.81  -955.647640    2             
iter:  18  10:50:31  -3.53  -2.85  -955.641613    2             
iter:  19  10:51:46  -3.69  -2.97  -955.649280    2             
iter:  20  10:52:57  -4.30  -3.20  -955.640515    2             
iter:  21  10:54:07  -5.27  -3.32  -955.640897    2             
iter:  22  10:55:17  -4.46  -3.34  -955.640926    1             
iter:  23  10:56:31  -4.31  -3.50  -955.640109    2             
iter:  24  10:57:41  -5.28  -3.74  -955.639522    2             
iter:  25  10:58:51  -5.63  -3.80  -955.639563    1             
iter:  26  11:00:01  -5.23  -4.03  -955.639771    2             
iter:  27  11:01:17  -5.52  -4.03  -955.639524    2             
iter:  28  11:02:27  -6.26  -4.24  -955.639517    1             
iter:  29  11:03:37  -6.45  -4.27  -955.639499    1             
iter:  30  11:04:47  -6.11  -4.34  -955.639525    2             
iter:  31  11:05:57  -7.04  -4.41  -955.639497    1             
iter:  32  11:07:12  -6.13  -4.57  -955.639501    2             
iter:  33  11:08:22  -7.41  -4.66  -955.639491    1             

Converged after 33 iterations.

Dipole moment: (-17.783845, -9.015482, -1.663669) |e|*Ang

Energy contributions relative to reference atoms: (reference = -1044851.132452)

Kinetic:       +690.583041
Potential:     -879.059367
External:        +0.000000
XC:            -774.872764
Entropy (-ST):   -0.000554
Local:           +7.709875
--------------------------
Free energy:   -955.639768
Extrapolated:  -955.639491

Fermi level: -0.79185

Showing only first 2 kpts
 Kpt  Band  Eigenvalues  Occupancy
  0   458     -1.85503    0.22222
  0   459     -1.84867    0.22222
  0   460      0.05252    0.00005
  0   461      0.18279    0.00001

  1   458     -1.86551    0.44443
  1   459     -1.84204    0.44443
  1   460      0.24792    0.00001
  1   461      0.31714    0.00001



Forces in eV/Ang:
  0 O    -1.89478    0.00955    1.56587
  1 O    -1.91951    0.00023    1.55811
  2 Ti    3.84605    0.00253    1.93454
  3 Ti    3.85721   -0.05781    1.95382
  4 Ti   -1.97953   -0.05147   -2.08688
  5 Ti   -1.89672    0.00039   -2.04743
  6 O     0.89531    0.00518   -0.18163
  7 O     0.85175    0.09146   -0.17581
  8 O    -0.67200    0.03247   -0.57397
  9 O    -0.69285    0.00993   -0.60350
 10 O    -0.27842   -0.00120   -0.85929
 11 O    -0.23875    0.09513   -0.85676
 12 O    -0.12971    0.01037    0.03960
 13 O    -0.16946   -0.00164    0.03061
 14 Ti    0.05632    0.00235   -0.12628
 15 Ti    0.01752    0.01274   -0.14722
 16 Ti    0.08070   -0.06548    0.05453
 17 Ti    0.10423    0.00284    0.10197
 18 O     0.11451    0.00189   -0.09012
 19 O     0.12133    0.03447   -0.06589
 20 O     0.03917    0.00283    0.11052
 21 O    -0.00117    0.00357    0.09426
 22 O    -0.00731    0.00822    0.07497
 23 O    -0.00507    0.00240    0.08559
 24 O    -0.00265    0.00655    0.03867
 25 O    -0.07204    0.00521   -0.02539
 26 Ti    0.10029    0.07737   -0.15577
 27 Ti   -0.11921    0.08368   -0.15426
 28 Ti    0.08708   -0.29428    0.01731
 29 Ti    0.20881    0.00454    0.04795
 30 O    -0.00446    0.00902    0.13089
 31 O     0.14033   -0.02752   -0.08355
 32 O     0.08339   -0.01553    0.09057
 33 O    -0.04818   -0.00724    0.04945
 34 O    -0.12792    0.00206    0.08043
 35 O    -0.34978   -0.04843    0.14604
 36 O    -1.91769    0.00087    1.58211
 37 O    -1.89359    0.00987    1.61998
 38 Ti    3.66784   -0.06271    1.77581
 39 Ti    3.77638   -0.00019    1.84126
 40 Ti   -1.80750   -0.00270   -1.94551
 41 Ti   -1.64907   -0.06328   -1.71276
 42 O     0.93271    0.05449   -0.20065
 43 O     0.85593    0.00719   -0.16634
 44 O    -0.65181    0.01016   -0.50291
 45 O    -0.68518    0.02765   -0.61241
 46 O    -0.31539    0.07267   -0.86326
 47 O    -0.24198    0.00135   -0.90023
 48 O    -0.04482    0.00274    0.09098
 49 O    -0.12945   -0.00448    0.09082
 50 Ti    0.03611   -0.02149   -0.07020
 51 Ti   -0.12151   -0.00006   -0.09987
 52 Ti    0.02032   -0.00450   -0.20904
 53 Ti    0.04759   -0.02363    0.09476
 54 O     0.14742    0.05826   -0.07216
 55 O     0.19804    0.01155    0.00643
 56 O     0.19326    0.00681    0.15317
 57 O    -0.02733    0.04152    0.06759
 58 O    -0.01129    0.01306    0.21908
 59 O    -0.01654    0.00451    0.03112
 60 O     0.04388    0.00539    0.64457
 61 O    -0.16806    0.01254   -0.24088
 62 Ti    0.38584   -0.00897    0.14511
 63 Ti   -0.37540   -0.02863   -0.23443
 64 Ti   -0.46399   -0.00216   -1.69141
 65 Ti   -0.18486   -0.03183    0.37573
 66 O    -0.10224    0.56818    0.35464
 67 O     0.00308    0.01934    0.29118
 68 O     0.57373    0.00502    0.35902
 69 O     0.05211   -0.10140   -0.46660
 70 O     0.06383    0.04828    0.08454
 71 O    -0.41566   -0.12193    0.01895
 72 O    -1.89565   -0.00862    1.56548
 73 O    -1.89047   -0.00865    1.62166
 74 Ti    3.66712    0.06329    1.77619
 75 Ti    3.85787    0.06122    1.95149
 76 Ti   -1.97718    0.04937   -2.09313
 77 Ti   -1.64901    0.05832   -1.71262
 78 O     0.93308   -0.04144   -0.19995
 79 O     0.85107   -0.08490   -0.17402
 80 O    -0.67771   -0.01766   -0.58563
 81 O    -0.68271   -0.00600   -0.61790
 82 O    -0.31633   -0.07111   -0.85980
 83 O    -0.23917   -0.09626   -0.85470
 84 O    -0.11190   -0.00962    0.03437
 85 O    -0.12466    0.00572    0.08751
 86 Ti    0.02087    0.01917   -0.06235
 87 Ti    0.00376   -0.01521   -0.13300
 88 Ti    0.07922    0.07913    0.04518
 89 Ti    0.03688    0.01505    0.09060
 90 O     0.14697   -0.06005   -0.07138
 91 O     0.12089   -0.00835   -0.06546
 92 O     0.04443    0.00654    0.11811
 93 O    -0.02122   -0.03527    0.08075
 94 O    -0.00940   -0.00382    0.22247
 95 O    -0.00947    0.00317    0.08105
 96 O    -0.00501    0.00849    0.03945
 97 O    -0.15575   -0.01587   -0.25962
 98 Ti    0.39254    0.19378    0.15730
 99 Ti   -0.11857   -0.08076   -0.15330
100 Ti    0.08626    0.28878    0.01392
101 Ti   -0.15868    0.01435    0.35129
102 O    -0.11621   -0.56933    0.36860
103 O     0.15344    0.04837   -0.07835
104 O     0.09326    0.00330    0.09199
105 O     0.03304   -0.01876   -0.47184
106 O     0.06071   -0.02379    0.09485
107 O    -0.32758   -0.11930    0.13738
108 V    -0.35142   -0.39668    0.60161
109 V    -0.38291    0.39171    0.60132
110 O     0.00029   -0.00702   -0.13472
111 O    -0.00528   -0.12562   -0.15096
112 O     0.65297    0.03297    0.04500
113 O    -0.02616    0.19453   -0.19602
114 O    -0.03556    0.03011   -0.11849

System changes: positions 

Initializing position-dependent things.

Density initialized from wave functions
                                                
                                                
                                                
                                                
                                                
                                                
                          O                     
                            O                   
              O     O   O V   O Ti              
                       O O      O    O          
                  Oi   OV    O      Ti          
           O   O            O Ti  O             
               Ti     Oi   O O                  
         O     O O  OTi    Tii   OTi            
             Tii    Ti    OOO   O               
              O   OO    O Ti   TiOi             
          O Ti   TiOi     O    O     O          
                O      Ti     TiO               
            O   TiO      O  O  O   O Ti         
         Ti     O    O Oi    Ti     O           
              OTi          OTi    O             
             O O    O O         O Ti            
                    Ti     Oi     O             
             Oi     O    O      Ti              
           O      Ti    Ti     O                
          Ti          O      O                  
               O                                
                                                
                                                
                                                
                                                

Positions:
   0 O      8.476572    1.911173    6.000000    ( 0.0000,  0.0000,  0.0000)
   1 O      3.305699    0.000000    6.000000    ( 0.0000,  0.0000,  0.0000)
   2 Ti     1.412752    0.000000    6.752957    ( 0.0000,  0.0000,  0.0000)
   3 Ti     6.583625    1.911173    6.752957    ( 0.0000,  0.0000,  0.0000)
   4 Ti     9.522250    1.911173    7.640878    ( 0.0000,  0.0000,  0.0000)
   5 Ti     4.351376    0.000000    7.640878    ( 0.0000,  0.0000,  0.0000)
   6 O      9.861551    0.000000    7.505914    ( 0.0000,  0.0000,  0.0000)
   7 O      4.690678    1.911173    7.505914    ( 0.0000,  0.0000,  0.0000)
   8 O      7.629303    1.911173    8.393834    ( 0.0000,  0.0000,  0.0000)
   9 O      2.458430    0.000000    8.393834    ( 0.0000,  0.0000,  0.0000)
  10 O      6.244323    0.000000    6.887921    ( 0.0000,  0.0000,  0.0000)
  11 O      1.073450    1.911173    6.887921    ( 0.0000,  0.0000,  0.0000)
  12 O      9.798319    1.918882    9.579712    ( 0.0000,  0.0000,  0.0000)
  13 O      4.631394   11.470605    9.578818    ( 0.0000,  0.0000,  0.0000)
  14 Ti     2.743888   11.473553   10.387286    ( 0.0000,  0.0000,  0.0000)
  15 Ti     7.922158    1.908358   10.391488    ( 0.0000,  0.0000,  0.0000)
  16 Ti     0.483180    1.930477   11.120131    ( 0.0000,  0.0000,  0.0000)
  17 Ti     5.640623   11.475292   11.129569    ( 0.0000,  0.0000,  0.0000)
  18 O      0.906451   11.473085   11.074218    ( 0.0000,  0.0000,  0.0000)
  19 O      6.074349    1.919851   11.087665    ( 0.0000,  0.0000,  0.0000)
  20 O      9.030179    1.921705   11.940600    ( 0.0000,  0.0000,  0.0000)
  21 O      3.852057    0.014228   11.941250    ( 0.0000,  0.0000,  0.0000)
  22 O      7.547275   11.472273   10.449187    ( 0.0000,  0.0000,  0.0000)
  23 O      2.384488    1.927498   10.448677    ( 0.0000,  0.0000,  0.0000)
  24 O      0.928566    1.910368   13.076739    ( 0.0000,  0.0000,  0.0000)
  25 O      6.092934   11.473461   13.073094    ( 0.0000,  0.0000,  0.0000)
  26 Ti     4.203187   -0.019230   14.021157    ( 0.0000,  0.0000,  0.0000)
  27 Ti     9.414223    1.870688   14.020938    ( 0.0000,  0.0000,  0.0000)
  28 Ti     1.858841    1.925944   14.598221    ( 0.0000,  0.0000,  0.0000)
  29 Ti     7.001010   11.484270   14.601670    ( 0.0000,  0.0000,  0.0000)
  30 O      2.387441   11.487433   14.820433    ( 0.0000,  0.0000,  0.0000)
  31 O      7.571533    1.878551   14.785902    ( 0.0000,  0.0000,  0.0000)
  32 O      0.230569    1.908505   15.455177    ( 0.0000,  0.0000,  0.0000)
  33 O      5.389317   11.473408   15.453311    ( 0.0000,  0.0000,  0.0000)
  34 O      9.044514   11.483788   13.940267    ( 0.0000,  0.0000,  0.0000)
  35 O      3.829594    1.922884   13.948288    ( 0.0000,  0.0000,  0.0000)
  36 O      8.476572    5.733518    6.000000    ( 0.0000,  0.0000,  0.0000)
  37 O      3.305699    3.822345    6.000000    ( 0.0000,  0.0000,  0.0000)
  38 Ti     1.412752    3.822345    6.752957    ( 0.0000,  0.0000,  0.0000)
  39 Ti     6.583625    5.733518    6.752957    ( 0.0000,  0.0000,  0.0000)
  40 Ti     9.522250    5.733518    7.640878    ( 0.0000,  0.0000,  0.0000)
  41 Ti     4.351376    3.822345    7.640878    ( 0.0000,  0.0000,  0.0000)
  42 O      9.861551    3.822345    7.505914    ( 0.0000,  0.0000,  0.0000)
  43 O      4.690678    5.733518    7.505914    ( 0.0000,  0.0000,  0.0000)
  44 O      7.629303    5.733518    8.393834    ( 0.0000,  0.0000,  0.0000)
  45 O      2.458430    3.822345    8.393834    ( 0.0000,  0.0000,  0.0000)
  46 O      6.244323    3.822345    6.887921    ( 0.0000,  0.0000,  0.0000)
  47 O      1.073450    5.733518    6.887921    ( 0.0000,  0.0000,  0.0000)
  48 O      9.805253    5.737644    9.591048    ( 0.0000,  0.0000,  0.0000)
  49 O      4.630551    3.826252    9.618472    ( 0.0000,  0.0000,  0.0000)
  50 Ti     2.774215    3.828189   10.337970    ( 0.0000,  0.0000,  0.0000)
  51 Ti     7.956520    5.740517   10.357901    ( 0.0000,  0.0000,  0.0000)
  52 Ti     0.524317    5.739057   11.165321    ( 0.0000,  0.0000,  0.0000)
  53 Ti     5.694478    3.841836   11.220669    ( 0.0000,  0.0000,  0.0000)
  54 O      0.902681    3.831203   11.081745    ( 0.0000,  0.0000,  0.0000)
  55 O      6.076772    5.740165   11.111982    ( 0.0000,  0.0000,  0.0000)
  56 O      9.064033    5.743686   11.942548    ( 0.0000,  0.0000,  0.0000)
  57 O      3.825859    3.876359   11.978669    ( 0.0000,  0.0000,  0.0000)
  58 O      7.539954    3.838202   10.467266    ( 0.0000,  0.0000,  0.0000)
  59 O      2.385479    5.739961   10.441362    ( 0.0000,  0.0000,  0.0000)
  60 O      1.000411    5.749136   13.132910    ( 0.0000,  0.0000,  0.0000)
  61 O      6.016288    3.775988   13.191586    ( 0.0000,  0.0000,  0.0000)
  62 Ti     4.171304    3.794749   13.890322    ( 0.0000,  0.0000,  0.0000)
  63 Ti     9.416821    5.755754   13.926586    ( 0.0000,  0.0000,  0.0000)
  64 Ti     1.838595    5.749426   14.751579    ( 0.0000,  0.0000,  0.0000)
  65 Ti     7.235021    3.835707   14.713346    ( 0.0000,  0.0000,  0.0000)
  66 O      2.347321    3.813392   14.788610    ( 0.0000,  0.0000,  0.0000)
  67 O      7.524739    5.750058   14.411183    ( 0.0000,  0.0000,  0.0000)
  68 O      0.159657    5.752075   15.456265    ( 0.0000,  0.0000,  0.0000)
  69 O      5.192219    3.749088   15.576517    ( 0.0000,  0.0000,  0.0000)
  70 O      9.013128    3.810519   13.965213    ( 0.0000,  0.0000,  0.0000)
  71 O      3.850414    5.759792   14.127964    ( 0.0000,  0.0000,  0.0000)
  72 O      8.476572    9.555862    6.000000    ( 0.0000,  0.0000,  0.0000)
  73 O      3.305699    7.644690    6.000000    ( 0.0000,  0.0000,  0.0000)
  74 Ti     1.412752    7.644690    6.752957    ( 0.0000,  0.0000,  0.0000)
  75 Ti     6.583625    9.555862    6.752957    ( 0.0000,  0.0000,  0.0000)
  76 Ti     9.522250    9.555862    7.640878    ( 0.0000,  0.0000,  0.0000)
  77 Ti     4.351376    7.644690    7.640878    ( 0.0000,  0.0000,  0.0000)
  78 O      9.861551    7.644690    7.505914    ( 0.0000,  0.0000,  0.0000)
  79 O      4.690678    9.555862    7.505914    ( 0.0000,  0.0000,  0.0000)
  80 O      7.629303    9.555862    8.393834    ( 0.0000,  0.0000,  0.0000)
  81 O      2.458430    7.644690    8.393834    ( 0.0000,  0.0000,  0.0000)
  82 O      6.244323    7.644690    6.887921    ( 0.0000,  0.0000,  0.0000)
  83 O      1.073450    9.555862    6.887921    ( 0.0000,  0.0000,  0.0000)
  84 O      9.797003    9.557036    9.579623    ( 0.0000,  0.0000,  0.0000)
  85 O      4.630698    7.647528    9.619591    ( 0.0000,  0.0000,  0.0000)
  86 Ti     2.776833    7.653158   10.337379    ( 0.0000,  0.0000,  0.0000)
  87 Ti     7.924969    9.572671   10.389879    ( 0.0000,  0.0000,  0.0000)
  88 Ti     0.483608    9.544575   11.120798    ( 0.0000,  0.0000,  0.0000)
  89 Ti     5.695007    7.646561   11.223780    ( 0.0000,  0.0000,  0.0000)
  90 O      0.902260    7.649219   11.080121    ( 0.0000,  0.0000,  0.0000)
  91 O      6.074051    9.558701   11.088454    ( 0.0000,  0.0000,  0.0000)
  92 O      9.030709    9.565552   11.939380    ( 0.0000,  0.0000,  0.0000)
  93 O      3.824580    7.625738   11.979940    ( 0.0000,  0.0000,  0.0000)
  94 O      7.539526    7.640743   10.468431    ( 0.0000,  0.0000,  0.0000)
  95 O      2.385269    9.551957   10.448269    ( 0.0000,  0.0000,  0.0000)
  96 O      0.928831    9.577530   13.075641    ( 0.0000,  0.0000,  0.0000)
  97 O      6.011348    7.704664   13.195510    ( 0.0000,  0.0000,  0.0000)
  98 Ti     4.166700    7.624687   13.894357    ( 0.0000,  0.0000,  0.0000)
  99 Ti     9.419536    9.633502   14.021510    ( 0.0000,  0.0000,  0.0000)
 100 Ti     1.864547    9.575268   14.595138    ( 0.0000,  0.0000,  0.0000)
 101 Ti     7.230031    7.677803   14.715721    ( 0.0000,  0.0000,  0.0000)
 102 O      2.345576    7.690295   14.794064    ( 0.0000,  0.0000,  0.0000)
 103 O      7.575091    9.620646   14.786293    ( 0.0000,  0.0000,  0.0000)
 104 O      0.231977    9.615481   15.453899    ( 0.0000,  0.0000,  0.0000)
 105 O      5.193199    7.821229   15.577930    ( 0.0000,  0.0000,  0.0000)
 106 O      9.013179    7.689784   13.966147    ( 0.0000,  0.0000,  0.0000)
 107 O      3.818879    9.588734   13.944992    ( 0.0000,  0.0000,  0.0000)
 108 V      5.857101    7.395810   17.179904    ( 0.0000,  0.0000,  0.0000)
 109 V      5.867409    4.122049   17.185721    ( 0.0000,  0.0000,  0.0000)
 110 O      7.522534    4.070802   16.579930    ( 0.0000,  0.0000,  0.0000)
 111 O      5.588496    8.517825   18.279074    ( 0.0000,  0.0000,  0.0000)
 112 O      5.226760    5.758360   17.658451    ( 0.0000,  0.0000,  0.0000)
 113 O      5.585190    2.994985   18.276189    ( 0.0000,  0.0000,  0.0000)
 114 O      7.515166    7.420507   16.575964    ( 0.0000,  0.0000,  0.0000)

Unit cell:
           periodic     x           y           z      points  spacing
  1. axis:    yes   10.341746    0.000000    0.000000    54     0.1915
  2. axis:    yes   -0.000000   11.467000    0.000000    60     0.1911
  3. axis:    no     0.000000    0.000000   23.497201   125     0.1880

  Lengths:  10.341746  11.467000  23.497201
  Angles:   90.000000  90.000000  90.000000

Effective grid spacing dv^(1/3) = 0.1902

                     log10-error:    total        iterations:
           time      wfs    density  energy       fermi  poisson
iter:   1  11:10:00  -2.75   +inf  -955.770628    3             
iter:   2  11:11:10  -3.64  -3.21  -955.768598    2             
iter:   3  11:12:25  -3.48  -3.23  -955.752465    2             
iter:   4  11:13:35  -4.32  -3.46  -955.752920    1             
iter:   5  11:14:45  -4.96  -3.48  -955.752251    2             
iter:   6  11:15:55  -4.59  -3.57  -955.751265    2             
iter:   7  11:17:04  -5.23  -3.81  -955.750930    2             
iter:   8  11:18:14  -5.64  -4.08  -955.750842    2             
iter:   9  11:19:24  -5.64  -4.17  -955.750895    1             
iter:  10  11:20:34  -6.09  -4.20  -955.750817    2             
iter:  11  11:21:43  -5.80  -4.43  -955.750818    1             
iter:  12  11:22:53  -7.03  -4.52  -955.750807    1             
iter:  13  11:24:03  -6.43  -4.65  -955.750817    1             
iter:  14  11:25:13  -6.94  -4.69  -955.750806    1             
iter:  15  11:26:22  -7.37  -4.99  -955.750806    1             
iter:  16  11:27:32  -7.57  -5.06  -955.750806    1             

Converged after 16 iterations.

Dipole moment: (-18.131247, -9.127466, -1.607625) |e|*Ang

Energy contributions relative to reference atoms: (reference = -1044851.132452)

Kinetic:       +691.540550
Potential:     -879.855872
External:        +0.000000
XC:            -775.133339
Entropy (-ST):   -0.000521
Local:           +7.698116
--------------------------
Free energy:   -955.751066
Extrapolated:  -955.750806

Fermi level: -0.78851

Showing only first 2 kpts
 Kpt  Band  Eigenvalues  Occupancy
  0   458     -1.85522    0.22222
  0   459     -1.84947    0.22222
  0   460      0.06218    0.00004
  0   461      0.18935    0.00001

  1   458     -1.86472    0.44444
  1   459     -1.84315    0.44443
  1   460      0.25761    0.00001
  1   461      0.32541    0.00001



Forces in eV/Ang:
  0 O    -1.89758    0.00986    1.56425
  1 O    -1.92213    0.00027    1.55558
  2 Ti    3.84661    0.00221    1.93529
  3 Ti    3.85134   -0.05923    1.95179
  4 Ti   -1.96892   -0.05376   -2.07148
  5 Ti   -1.89353    0.00006   -2.02908
  6 O     0.89447    0.00553   -0.18349
  7 O     0.85560    0.09168   -0.17980
  8 O    -0.67964    0.03423   -0.58597
  9 O    -0.70240    0.01009   -0.62332
 10 O    -0.27568   -0.00090   -0.86102
 11 O    -0.24045    0.09422   -0.85922
 12 O    -0.11209    0.01049    0.02763
 13 O    -0.13869   -0.00111    0.03525
 14 Ti    0.07332    0.00161   -0.09132
 15 Ti    0.03320    0.01497   -0.09673
 16 Ti    0.07793   -0.04685    0.09352
 17 Ti    0.07853    0.00299    0.09074
 18 O     0.09090    0.00291   -0.08628
 19 O     0.10634    0.01148   -0.06497
 20 O     0.02936    0.00125    0.06998
 21 O     0.00742    0.00140    0.06843
 22 O    -0.00058    0.00777    0.06803
 23 O    -0.00289   -0.01157    0.07574
 24 O    -0.01695   -0.00559   -0.00836
 25 O    -0.04254    0.00537    0.01336
 26 Ti    0.07799    0.07503   -0.12391
 27 Ti   -0.01125    0.09576   -0.09152
 28 Ti    0.06688   -0.07422    0.06171
 29 Ti    0.13849    0.00107    0.02492
 30 O     0.01720   -0.00282    0.12532
 31 O     0.09298   -0.01063   -0.06207
 32 O     0.03941   -0.02862    0.02627
 33 O     0.00227   -0.00665    0.01139
 34 O    -0.13364    0.00472    0.07112
 35 O    -0.29697   -0.08013    0.13181
 36 O    -1.91630    0.00082    1.58531
 37 O    -1.89461    0.01000    1.61692
 38 Ti    3.67573   -0.06328    1.78154
 39 Ti    3.76217    0.00008    1.83652
 40 Ti   -1.79630   -0.00239   -1.94590
 41 Ti   -1.65297   -0.06392   -1.68632
 42 O     0.92938    0.05983   -0.20017
 43 O     0.86218    0.00680   -0.17074
 44 O    -0.64918    0.01020   -0.49731
 45 O    -0.69385    0.02685   -0.64425
 46 O    -0.31118    0.07547   -0.86706
 47 O    -0.24690    0.00104   -0.90356
 48 O    -0.04034    0.00232    0.05735
 49 O    -0.10771   -0.00408    0.04504
 50 Ti    0.06502   -0.00913    0.00387
 51 Ti   -0.12025    0.00125   -0.04991
 52 Ti    0.03677   -0.00257   -0.16658
 53 Ti   -0.00476   -0.01639    0.11559
 54 O     0.11656    0.04908   -0.05738
 55 O     0.19017    0.00842   -0.00367
 56 O     0.17485    0.00642    0.10917
 57 O    -0.02554    0.02930    0.01050
 58 O     0.01886    0.01709    0.19593
 59 O    -0.01426    0.00307    0.02537
 60 O    -0.15673    0.00397    0.03672
 61 O    -0.07684    0.00979   -0.19392
 62 Ti    0.14702    0.10090    0.14986
 63 Ti   -0.19116   -0.02465    0.05718
 64 Ti   -0.23261   -0.00167   -1.12420
 65 Ti   -0.14974   -0.03272    0.28729
 66 O    -0.04005    0.27355    0.26870
 67 O    -0.04701    0.01343    0.28281
 68 O     0.29167    0.00475    0.16068
 69 O     0.20409   -0.03459   -0.12339
 70 O    -0.00239    0.03538    0.09571
 71 O    -0.25548   -0.07934   -0.05180
 72 O    -1.89851   -0.00887    1.56374
 73 O    -1.89164   -0.00883    1.61840
 74 Ti    3.67541    0.06418    1.78234
 75 Ti    3.85218    0.06234    1.94980
 76 Ti   -1.96680    0.05140   -2.07749
 77 Ti   -1.65324    0.05939   -1.68519
 78 O     0.92966   -0.04705   -0.19957
 79 O     0.85494   -0.08468   -0.17818
 80 O    -0.68467   -0.01916   -0.59633
 81 O    -0.69136   -0.00536   -0.64982
 82 O    -0.31198   -0.07415   -0.86367
 83 O    -0.24079   -0.09499   -0.85725
 84 O    -0.09714   -0.00955    0.02274
 85 O    -0.10440    0.00522    0.04170
 86 Ti    0.05185    0.00832    0.01281
 87 Ti    0.02076   -0.01749   -0.08299
 88 Ti    0.07704    0.05873    0.08530
 89 Ti   -0.01528    0.00826    0.11285
 90 O     0.11651   -0.05001   -0.05645
 91 O     0.10698    0.01186   -0.06489
 92 O     0.03296    0.00850    0.07592
 93 O    -0.02182   -0.02502    0.01671
 94 O     0.02134   -0.00704    0.19827
 95 O    -0.00686    0.01745    0.07138
 96 O    -0.01671    0.01983   -0.00712
 97 O    -0.06154   -0.01171   -0.20994
 98 Ti    0.15269    0.05660    0.17041
 99 Ti   -0.01124   -0.09418   -0.08884
100 Ti    0.05823    0.06703    0.06282
101 Ti   -0.13068    0.01923    0.26082
102 O    -0.05455   -0.29036    0.27971
103 O     0.10427    0.03035   -0.05666
104 O     0.04876    0.01645    0.02717
105 O     0.18261   -0.08251   -0.13621
106 O    -0.00209   -0.01495    0.10408
107 O    -0.27206   -0.06336    0.12181
108 V    -0.10913   -0.21580    0.00125
109 V    -0.11172    0.26076   -0.03606
110 O    -0.19269    0.00952    0.01533
111 O    -0.05792   -0.01307    0.02964
112 O     0.47700    0.01815    0.21815
113 O    -0.08898    0.04557    0.01857
114 O    -0.20550    0.01456    0.02642

System changes: positions 

Initializing position-dependent things.

Density initialized from wave functions
                                                
                                                
                                                
                                                
                                                
                                                
                          O                     
                            O                   
              O     O   O V   O Ti              
                       O O      O    O          
                  Oi  O V    O      Ti          
           O   O            O Ti  O             
               Ti     Oi   O O                  
         O     O O  OTi    Tii   OTi            
             Tii    Ti    OOO   O               
              O   OO    O Ti   TiOi             
          O Ti   TiOi     O   O      O          
                O      Ti     TiO               
            O   TiO      O  O  O   O Ti         
         Ti     O    O Oi    Ti     O           
              OTi          OTi    O             
             O O    O O         O Ti            
                    Ti     Oi     O             
             Oi     O    O      Ti              
           O      Ti    Ti     O                
          Ti          O      O                  
               O                                
                                                
                                                
                                                
                                                

Positions:
   0 O      8.476572    1.911173    6.000000    ( 0.0000,  0.0000,  0.0000)
   1 O      3.305699    0.000000    6.000000    ( 0.0000,  0.0000,  0.0000)
   2 Ti     1.412752    0.000000    6.752957    ( 0.0000,  0.0000,  0.0000)
   3 Ti     6.583625    1.911173    6.752957    ( 0.0000,  0.0000,  0.0000)
   4 Ti     9.522250    1.911173    7.640878    ( 0.0000,  0.0000,  0.0000)
   5 Ti     4.351376    0.000000    7.640878    ( 0.0000,  0.0000,  0.0000)
   6 O      9.861551    0.000000    7.505914    ( 0.0000,  0.0000,  0.0000)
   7 O      4.690678    1.911173    7.505914    ( 0.0000,  0.0000,  0.0000)
   8 O      7.629303    1.911173    8.393834    ( 0.0000,  0.0000,  0.0000)
   9 O      2.458430    0.000000    8.393834    ( 0.0000,  0.0000,  0.0000)
  10 O      6.244323    0.000000    6.887921    ( 0.0000,  0.0000,  0.0000)
  11 O      1.073450    1.911173    6.887921    ( 0.0000,  0.0000,  0.0000)
  12 O      9.794647    1.919216    9.580660    ( 0.0000,  0.0000,  0.0000)
  13 O      4.626800   11.470567    9.579915    ( 0.0000,  0.0000,  0.0000)
  14 Ti     2.746128   11.473609   10.384178    ( 0.0000,  0.0000,  0.0000)
  15 Ti     7.923127    1.908823   10.388120    ( 0.0000,  0.0000,  0.0000)
  16 Ti     0.485679    1.928879   11.122890    ( 0.0000,  0.0000,  0.0000)
  17 Ti     5.643271   11.475387   11.132524    ( 0.0000,  0.0000,  0.0000)
  18 O      0.909481   11.473172   11.071447    ( 0.0000,  0.0000,  0.0000)
  19 O      6.077822    1.920347   11.085589    ( 0.0000,  0.0000,  0.0000)
  20 O      9.031171    1.921753   11.943060    ( 0.0000,  0.0000,  0.0000)
  21 O      3.852245    0.014284   11.943577    ( 0.0000,  0.0000,  0.0000)
  22 O      7.547218   11.472523   10.451394    ( 0.0000,  0.0000,  0.0000)
  23 O      2.384383    1.927209   10.451146    ( 0.0000,  0.0000,  0.0000)
  24 O      0.928107    1.910259   13.076739    ( 0.0000,  0.0000,  0.0000)
  25 O      6.091411   11.473631   13.073300    ( 0.0000,  0.0000,  0.0000)
  26 Ti     4.205799   -0.016826   14.017028    ( 0.0000,  0.0000,  0.0000)
  27 Ti     9.413253    1.873671   14.017666    ( 0.0000,  0.0000,  0.0000)
  28 Ti     1.861087    1.922332   14.599937    ( 0.0000,  0.0000,  0.0000)
  29 Ti     7.005822   11.484324   14.602594    ( 0.0000,  0.0000,  0.0000)
  30 O      2.387866   11.487410   14.824458    ( 0.0000,  0.0000,  0.0000)
  31 O      7.574764    1.878116   14.783803    ( 0.0000,  0.0000,  0.0000)
  32 O      0.232074    1.907667   15.456379    ( 0.0000,  0.0000,  0.0000)
  33 O      5.389104   11.473193   15.453889    ( 0.0000,  0.0000,  0.0000)
  34 O      9.040288   11.483923   13.942586    ( 0.0000,  0.0000,  0.0000)
  35 O      3.819832    1.920510   13.952569    ( 0.0000,  0.0000,  0.0000)
  36 O      8.476572    5.733518    6.000000    ( 0.0000,  0.0000,  0.0000)
  37 O      3.305699    3.822345    6.000000    ( 0.0000,  0.0000,  0.0000)
  38 Ti     1.412752    3.822345    6.752957    ( 0.0000,  0.0000,  0.0000)
  39 Ti     6.583625    5.733518    6.752957    ( 0.0000,  0.0000,  0.0000)
  40 Ti     9.522250    5.733518    7.640878    ( 0.0000,  0.0000,  0.0000)
  41 Ti     4.351376    3.822345    7.640878    ( 0.0000,  0.0000,  0.0000)
  42 O      9.861551    3.822345    7.505914    ( 0.0000,  0.0000,  0.0000)
  43 O      4.690678    5.733518    7.505914    ( 0.0000,  0.0000,  0.0000)
  44 O      7.629303    5.733518    8.393834    ( 0.0000,  0.0000,  0.0000)
  45 O      2.458430    3.822345    8.393834    ( 0.0000,  0.0000,  0.0000)
  46 O      6.244323    3.822345    6.887921    ( 0.0000,  0.0000,  0.0000)
  47 O      1.073450    5.733518    6.887921    ( 0.0000,  0.0000,  0.0000)
  48 O      9.803943    5.737721    9.593066    ( 0.0000,  0.0000,  0.0000)
  49 O      4.626995    3.826120    9.620167    ( 0.0000,  0.0000,  0.0000)
  50 Ti     2.776123    3.827828   10.337674    ( 0.0000,  0.0000,  0.0000)
  51 Ti     7.952681    5.740549   10.356028    ( 0.0000,  0.0000,  0.0000)
  52 Ti     0.525395    5.738964   11.159772    ( 0.0000,  0.0000,  0.0000)
  53 Ti     5.694623    3.841273   11.224234    ( 0.0000,  0.0000,  0.0000)
  54 O      0.906570    3.832819   11.079832    ( 0.0000,  0.0000,  0.0000)
  55 O      6.082877    5.740451   11.111922    ( 0.0000,  0.0000,  0.0000)
  56 O      9.069709    5.743893   11.946277    ( 0.0000,  0.0000,  0.0000)
  57 O      3.825035    3.877362   11.979327    ( 0.0000,  0.0000,  0.0000)
  58 O      7.540384    3.838724   10.473640    ( 0.0000,  0.0000,  0.0000)
  59 O      2.385012    5.740068   10.442203    ( 0.0000,  0.0000,  0.0000)
  60 O      0.996553    5.749271   13.137524    ( 0.0000,  0.0000,  0.0000)
  61 O      6.013322    3.776316   13.185140    ( 0.0000,  0.0000,  0.0000)
  62 Ti     4.177341    3.797342   13.895070    ( 0.0000,  0.0000,  0.0000)
  63 Ti     9.409686    5.754947   13.926756    ( 0.0000,  0.0000,  0.0000)
  64 Ti     1.829872    5.749370   14.712542    ( 0.0000,  0.0000,  0.0000)
  65 Ti     7.230051    3.834669   14.723002    ( 0.0000,  0.0000,  0.0000)
  66 O      2.345692    3.823778   14.797659    ( 0.0000,  0.0000,  0.0000)
  67 O      7.523524    5.750519   14.420243    ( 0.0000,  0.0000,  0.0000)
  68 O      0.170549    5.752228   15.462509    ( 0.0000,  0.0000,  0.0000)
  69 O      5.197861    3.747607   15.570641    ( 0.0000,  0.0000,  0.0000)
  70 O      9.013427    3.811720   13.968199    ( 0.0000,  0.0000,  0.0000)
  71 O      3.841365    5.757022   14.126714    ( 0.0000,  0.0000,  0.0000)
  72 O      8.476572    9.555862    6.000000    ( 0.0000,  0.0000,  0.0000)
  73 O      3.305699    7.644690    6.000000    ( 0.0000,  0.0000,  0.0000)
  74 Ti     1.412752    7.644690    6.752957    ( 0.0000,  0.0000,  0.0000)
  75 Ti     6.583625    9.555862    6.752957    ( 0.0000,  0.0000,  0.0000)
  76 Ti     9.522250    9.555862    7.640878    ( 0.0000,  0.0000,  0.0000)
  77 Ti     4.351376    7.644690    7.640878    ( 0.0000,  0.0000,  0.0000)
  78 O      9.861551    7.644690    7.505914    ( 0.0000,  0.0000,  0.0000)
  79 O      4.690678    9.555862    7.505914    ( 0.0000,  0.0000,  0.0000)
  80 O      7.629303    9.555862    8.393834    ( 0.0000,  0.0000,  0.0000)
  81 O      2.458430    7.644690    8.393834    ( 0.0000,  0.0000,  0.0000)
  82 O      6.244323    7.644690    6.887921    ( 0.0000,  0.0000,  0.0000)
  83 O      1.073450    9.555862    6.887921    ( 0.0000,  0.0000,  0.0000)
  84 O      9.793824    9.556731    9.580413    ( 0.0000,  0.0000,  0.0000)
  85 O      4.627256    7.647697    9.621179    ( 0.0000,  0.0000,  0.0000)
  86 Ti     2.778310    7.653484   10.337362    ( 0.0000,  0.0000,  0.0000)
  87 Ti     7.925534    9.572127   10.386951    ( 0.0000,  0.0000,  0.0000)
  88 Ti     0.486075    9.546562   11.123289    ( 0.0000,  0.0000,  0.0000)
  89 Ti     5.694816    7.646863   11.227250    ( 0.0000,  0.0000,  0.0000)
  90 O      0.906146    7.647568   11.078238    ( 0.0000,  0.0000,  0.0000)
  91 O      6.077539    9.558964   11.086383    ( 0.0000,  0.0000,  0.0000)
  92 O      9.031825    9.565812   11.942038    ( 0.0000,  0.0000,  0.0000)
  93 O      3.823888    7.624883   11.980835    ( 0.0000,  0.0000,  0.0000)
  94 O      7.540032    7.640537   10.474886    ( 0.0000,  0.0000,  0.0000)
  95 O      2.385036    9.552432   10.450599    ( 0.0000,  0.0000,  0.0000)
  96 O      0.928365    9.578098   13.075677    ( 0.0000,  0.0000,  0.0000)
  97 O      6.008853    7.704267   13.188538    ( 0.0000,  0.0000,  0.0000)
  98 Ti     4.172924    7.627268   13.899714    ( 0.0000,  0.0000,  0.0000)
  99 Ti     9.418570    9.630577   14.018314    ( 0.0000,  0.0000,  0.0000)
 100 Ti     1.866561    9.578660   14.596862    ( 0.0000,  0.0000,  0.0000)
 101 Ti     7.225708    7.678389   14.724545    ( 0.0000,  0.0000,  0.0000)
 102 O      2.343489    7.679462   14.803481    ( 0.0000,  0.0000,  0.0000)
 103 O      7.578692    9.621715   14.784365    ( 0.0000,  0.0000,  0.0000)
 104 O      0.233783    9.615930   15.455132    ( 0.0000,  0.0000,  0.0000)
 105 O      5.198171    7.818961   15.571689    ( 0.0000,  0.0000,  0.0000)
 106 O      9.013468    7.689258   13.969412    ( 0.0000,  0.0000,  0.0000)
 107 O      3.809895    9.586398   13.948962    ( 0.0000,  0.0000,  0.0000)
 108 V      5.852251    7.387909   17.183345    ( 0.0000,  0.0000,  0.0000)
 109 V      5.862313    4.131101   17.188183    ( 0.0000,  0.0000,  0.0000)
 110 O      7.517487    4.071012   16.579568    ( 0.0000,  0.0000,  0.0000)
 111 O      5.586949    8.516771   18.278996    ( 0.0000,  0.0000,  0.0000)
 112 O      5.242957    5.759022   17.664422    ( 0.0000,  0.0000,  0.0000)
 113 O      5.582710    2.997281   18.275565    ( 0.0000,  0.0000,  0.0000)
 114 O      7.509580    7.421059   16.575985    ( 0.0000,  0.0000,  0.0000)

Unit cell:
           periodic     x           y           z      points  spacing
  1. axis:    yes   10.341746    0.000000    0.000000    54     0.1915
  2. axis:    yes   -0.000000   11.467000    0.000000    60     0.1911
  3. axis:    no     0.000000    0.000000   23.497201   125     0.1880

  Lengths:  10.341746  11.467000  23.497201
  Angles:   90.000000  90.000000  90.000000

Effective grid spacing dv^(1/3) = 0.1902

                     log10-error:    total        iterations:
           time      wfs    density  energy       fermi  poisson
iter:   1  11:29:10  -2.54   +inf  -955.866414    3             
iter:   2  11:30:19  -3.48  -3.09  -955.863020    2             
iter:   3  11:31:29  -3.28  -3.11  -955.840486    3             
iter:   4  11:32:39  -4.13  -3.34  -955.840996    2             
iter:   5  11:33:49  -4.79  -3.35  -955.839603    2             
iter:   6  11:34:59  -4.22  -3.42  -955.838682    2             
iter:   7  11:36:09  -4.98  -3.62  -955.837981    1             
iter:   8  11:37:18  -4.57  -3.79  -955.837545    2             
iter:   9  11:38:28  -5.63  -4.03  -955.837478    1             
iter:  10  11:39:38  -5.35  -4.06  -955.837452    2             
iter:  11  11:40:48  -5.34  -4.12  -955.837454    1             
iter:  12  11:41:58  -6.19  -4.23  -955.837393    2             
iter:  13  11:43:08  -6.06  -4.31  -955.837358    1             
iter:  14  11:44:17  -6.85  -4.45  -955.837367    2             
iter:  15  11:45:27  -6.22  -4.57  -955.837365    1             
iter:  16  11:46:37  -7.21  -4.82  -955.837362    1             
iter:  17  11:47:47  -6.94  -4.86  -955.837358    1             
iter:  18  11:48:56  -6.90  -4.95  -955.837364    1             
iter:  19  11:50:06  -7.66  -4.93  -955.837359    1             

Converged after 19 iterations.

Dipole moment: (-18.548235, -9.336236, -1.576363) |e|*Ang

Energy contributions relative to reference atoms: (reference = -1044851.132452)

Kinetic:       +693.692182
Potential:     -881.649144
External:        +0.000000
XC:            -775.577540
Entropy (-ST):   -0.000502
Local:           +7.697394
--------------------------
Free energy:   -955.837610
Extrapolated:  -955.837359

Fermi level: -0.78647

Showing only first 2 kpts
 Kpt  Band  Eigenvalues  Occupancy
  0   458     -1.85604    0.22222
  0   459     -1.85060    0.22222
  0   460      0.06858    0.00004
  0   461      0.19353    0.00001

  1   458     -1.86468    0.44444
  1   459     -1.84468    0.44443
  1   460      0.26362    0.00001
  1   461      0.33025    0.00001



Forces in eV/Ang:
  0 O    -1.90215    0.01010    1.56331
  1 O    -1.92194    0.00038    1.55570
  2 Ti    3.84275    0.00147    1.93373
  3 Ti    3.84537   -0.06007    1.94585
  4 Ti   -1.95102   -0.05512   -2.04840
  5 Ti   -1.88953   -0.00073   -2.01309
  6 O     0.89395    0.00635   -0.18449
  7 O     0.86006    0.08987   -0.18094
  8 O    -0.69687    0.03773   -0.59946
  9 O    -0.71780    0.01047   -0.64551
 10 O    -0.27349   -0.00020   -0.85958
 11 O    -0.24316    0.08997   -0.85851
 12 O    -0.06614    0.01054    0.03228
 13 O    -0.07509   -0.00009    0.05430
 14 Ti    0.08513    0.00033   -0.05768
 15 Ti    0.06678    0.02100   -0.03763
 16 Ti    0.05188   -0.01109    0.09224
 17 Ti    0.04614    0.00296    0.04171
 18 O     0.04377    0.00429   -0.06853
 19 O     0.05754   -0.00909   -0.04998
 20 O     0.02079    0.00065    0.02996
 21 O     0.02555   -0.00211    0.05388
 22 O     0.00820    0.00709    0.05986
 23 O     0.00979   -0.02365    0.06453
 24 O    -0.00607   -0.01033   -0.01518
 25 O    -0.00956    0.00570    0.04890
 26 Ti    0.03382    0.06378   -0.05652
 27 Ti    0.10189    0.06754   -0.03740
 28 Ti    0.00320    0.12038    0.08605
 29 Ti    0.05474   -0.00268    0.00073
 30 O     0.03377   -0.02027    0.10797
 31 O     0.01262    0.04210   -0.02396
 32 O    -0.00564   -0.03376   -0.03804
 33 O     0.05339   -0.00566   -0.04508
 34 O    -0.11862    0.00710    0.05884
 35 O    -0.18414   -0.03396    0.10546
 36 O    -1.91555    0.00072    1.59098
 37 O    -1.89159    0.00990    1.61464
 38 Ti    3.68717   -0.06209    1.79275
 39 Ti    3.74428    0.00074    1.82689
 40 Ti   -1.77755   -0.00168   -1.94018
 41 Ti   -1.66714   -0.06344   -1.66185
 42 O     0.92399    0.06587   -0.19823
 43 O     0.87034    0.00583   -0.17263
 44 O    -0.65109    0.01028   -0.48432
 45 O    -0.70587    0.02474   -0.67879
 46 O    -0.30563    0.07824   -0.86823
 47 O    -0.25416    0.00020   -0.90270
 48 O    -0.04302    0.00164   -0.00864
 49 O    -0.05257   -0.00198    0.00815
 50 Ti    0.06094    0.00528    0.04815
 51 Ti   -0.06103    0.00343    0.02991
 52 Ti    0.00272    0.00029   -0.15678
 53 Ti   -0.03745   -0.01811    0.08204
 54 O     0.07288    0.00657   -0.03222
 55 O     0.13398    0.00304   -0.00450
 56 O     0.11526    0.00584    0.05724
 57 O    -0.01496    0.01419    0.02782
 58 O     0.04678    0.01104    0.15972
 59 O     0.01983    0.00011    0.01322
 60 O    -0.41268    0.00225   -0.70686
 61 O     0.01710    0.00845   -0.05640
 62 Ti   -0.14352    0.15420    0.07614
 63 Ti   -0.01963   -0.01632    0.29872
 64 Ti    0.08877   -0.00072   -0.21017
 65 Ti   -0.05928   -0.06608    0.07492
 66 O     0.05026   -0.05392    0.14251
 67 O    -0.11615    0.00355    0.27088
 68 O     0.01244    0.00294   -0.09418
 69 O     0.26010    0.00989    0.04454
 70 O    -0.08887    0.02699    0.12128
 71 O    -0.04452   -0.03898   -0.12677
 72 O    -1.90322   -0.00900    1.56248
 73 O    -1.88889   -0.00887    1.61557
 74 Ti    3.68799    0.06374    1.79466
 75 Ti    3.84667    0.06246    1.94468
 76 Ti   -1.94960    0.05212   -2.05390
 77 Ti   -1.66843    0.05982   -1.65839
 78 O     0.92399   -0.05376   -0.19787
 79 O     0.85943   -0.08188   -0.17969
 80 O    -0.70047   -0.02205   -0.60717
 81 O    -0.70338   -0.00343   -0.68477
 82 O    -0.30610   -0.07758   -0.86606
 83 O    -0.24334   -0.08986   -0.85696
 84 O    -0.05669   -0.00913    0.02887
 85 O    -0.05182    0.00345    0.00458
 86 Ti    0.05402   -0.00419    0.05967
 87 Ti    0.05717   -0.02338   -0.02599
 88 Ti    0.05170    0.01975    0.08593
 89 Ti   -0.04941    0.01169    0.08183
 90 O     0.07298   -0.00550   -0.03096
 91 O     0.05993    0.02623   -0.05049
 92 O     0.02189    0.00997    0.03189
 93 O    -0.01422   -0.01702    0.02302
 94 O     0.05009   -0.00003    0.16002
 95 O     0.00625    0.03017    0.06061
 96 O    -0.00357    0.02368   -0.01445
 97 O     0.03524   -0.00890   -0.06766
 98 Ti   -0.13339   -0.02649    0.09861
 99 Ti    0.09999   -0.06823   -0.03421
100 Ti   -0.00689   -0.13024    0.09110
101 Ti   -0.04989    0.05607    0.05373
102 O     0.03814    0.01256    0.14780
103 O     0.01989   -0.02548   -0.01781
104 O     0.00055    0.02247   -0.03529
105 O     0.24138   -0.11212    0.03702
106 O    -0.08432   -0.01367    0.12690
107 O    -0.16356   -0.04593    0.09603
108 V    -0.00035    0.21663   -0.08800
109 V    -0.00340   -0.18674   -0.09441
110 O    -0.19888    0.03254    0.13195
111 O    -0.05469   -0.11634   -0.03896
112 O     0.27541    0.00831    0.33724
113 O    -0.07805    0.16328   -0.05974
114 O    -0.20302   -0.00573    0.14189

System changes: positions 

Initializing position-dependent things.

Density initialized from wave functions
                                                
                                                
                                                
                                                
                                                
                                                
                          O                     
                            O                   
              O     O   O V   O Ti              
                  Ti   O O      O    O          
                  O   O V    O      Ti          
           O   O            O Ti  O             
               Ti     Oi   O O                  
         O     OO   OTi    Tii   OTi            
             Tii    Ti    OOO   O               
              O   OO    O Ti   TiOi             
          O Ti   TiOi     O   O      O          
                O      Ti     TiO               
            O   TiO      O  O  O   O Ti         
         Ti     O    O Oi    Ti     O           
              OTi          OTi    O             
             O O    O O         O Ti            
                    Ti     Oi     O             
             Oi     O    O      Ti              
           O      Ti    Ti     O                
          Ti          O      O                  
               O                                
                                                
                                                
                                                
                                                

Positions:
   0 O      8.476572    1.911173    6.000000    ( 0.0000,  0.0000,  0.0000)
   1 O      3.305699    0.000000    6.000000    ( 0.0000,  0.0000,  0.0000)
   2 Ti     1.412752    0.000000    6.752957    ( 0.0000,  0.0000,  0.0000)
   3 Ti     6.583625    1.911173    6.752957    ( 0.0000,  0.0000,  0.0000)
   4 Ti     9.522250    1.911173    7.640878    ( 0.0000,  0.0000,  0.0000)
   5 Ti     4.351376    0.000000    7.640878    ( 0.0000,  0.0000,  0.0000)
   6 O      9.861551    0.000000    7.505914    ( 0.0000,  0.0000,  0.0000)
   7 O      4.690678    1.911173    7.505914    ( 0.0000,  0.0000,  0.0000)
   8 O      7.629303    1.911173    8.393834    ( 0.0000,  0.0000,  0.0000)
   9 O      2.458430    0.000000    8.393834    ( 0.0000,  0.0000,  0.0000)
  10 O      6.244323    0.000000    6.887921    ( 0.0000,  0.0000,  0.0000)
  11 O      1.073450    1.911173    6.887921    ( 0.0000,  0.0000,  0.0000)
  12 O      9.791493    1.919587    9.581811    ( 0.0000,  0.0000,  0.0000)
  13 O      4.622972   11.470544    9.581511    ( 0.0000,  0.0000,  0.0000)
  14 Ti     2.748837   11.473645   10.381390    ( 0.0000,  0.0000,  0.0000)
  15 Ti     7.924866    1.909457   10.385547    ( 0.0000,  0.0000,  0.0000)
  16 Ti     0.487926    1.927816   11.125898    ( 0.0000,  0.0000,  0.0000)
  17 Ti     5.645568   11.475491   11.134819    ( 0.0000,  0.0000,  0.0000)
  18 O      0.911905   11.473295   11.068731    ( 0.0000,  0.0000,  0.0000)
  19 O      6.080698    1.920497   11.083591    ( 0.0000,  0.0000,  0.0000)
  20 O      9.032102    1.921796   11.945004    ( 0.0000,  0.0000,  0.0000)
  21 O      3.852813    0.014278   11.945878    ( 0.0000,  0.0000,  0.0000)
  22 O      7.547328   11.472787   10.453679    ( 0.0000,  0.0000,  0.0000)
  23 O      2.384521    1.926654   10.453662    ( 0.0000,  0.0000,  0.0000)
  24 O      0.927826    1.910049   13.076630    ( 0.0000,  0.0000,  0.0000)
  25 O      6.090370   11.473826   13.074221    ( 0.0000,  0.0000,  0.0000)
  26 Ti     4.207817   -0.014387   14.013790    ( 0.0000,  0.0000,  0.0000)
  27 Ti     9.414389    1.876401   14.015093    ( 0.0000,  0.0000,  0.0000)
  28 Ti     1.862307    1.922113   14.602300    ( 0.0000,  0.0000,  0.0000)
  29 Ti     7.009510   11.484311   14.603146    ( 0.0000,  0.0000,  0.0000)
  30 O      2.388658   11.487041   14.828572    ( 0.0000,  0.0000,  0.0000)
  31 O      7.576756    1.878685   14.782230    ( 0.0000,  0.0000,  0.0000)
  32 O      0.232861    1.906643   15.456455    ( 0.0000,  0.0000,  0.0000)
  33 O      5.389865   11.472974   15.453417    ( 0.0000,  0.0000,  0.0000)
  34 O      9.035911   11.484119   13.944913    ( 0.0000,  0.0000,  0.0000)
  35 O      3.811254    1.918827   13.956791    ( 0.0000,  0.0000,  0.0000)
  36 O      8.476572    5.733518    6.000000    ( 0.0000,  0.0000,  0.0000)
  37 O      3.305699    3.822345    6.000000    ( 0.0000,  0.0000,  0.0000)
  38 Ti     1.412752    3.822345    6.752957    ( 0.0000,  0.0000,  0.0000)
  39 Ti     6.583625    5.733518    6.752957    ( 0.0000,  0.0000,  0.0000)
  40 Ti     9.522250    5.733518    7.640878    ( 0.0000,  0.0000,  0.0000)
  41 Ti     4.351376    3.822345    7.640878    ( 0.0000,  0.0000,  0.0000)
  42 O      9.861551    3.822345    7.505914    ( 0.0000,  0.0000,  0.0000)
  43 O      4.690678    5.733518    7.505914    ( 0.0000,  0.0000,  0.0000)
  44 O      7.629303    5.733518    8.393834    ( 0.0000,  0.0000,  0.0000)
  45 O      2.458430    3.822345    8.393834    ( 0.0000,  0.0000,  0.0000)
  46 O      6.244323    3.822345    6.887921    ( 0.0000,  0.0000,  0.0000)
  47 O      1.073450    5.733518    6.887921    ( 0.0000,  0.0000,  0.0000)
  48 O      9.802434    5.737792    9.593995    ( 0.0000,  0.0000,  0.0000)
  49 O      4.624152    3.826015    9.621330    ( 0.0000,  0.0000,  0.0000)
  50 Ti     2.778138    3.827711   10.338193    ( 0.0000,  0.0000,  0.0000)
  51 Ti     7.949618    5.740628   10.355527    ( 0.0000,  0.0000,  0.0000)
  52 Ti     0.525896    5.738918   11.153797    ( 0.0000,  0.0000,  0.0000)
  53 Ti     5.694157    3.840610   11.227498    ( 0.0000,  0.0000,  0.0000)
  54 O      0.910019    3.833760   11.078211    ( 0.0000,  0.0000,  0.0000)
  55 O      6.088515    5.740662   11.111845    ( 0.0000,  0.0000,  0.0000)
  56 O      9.074810    5.744111   11.949388    ( 0.0000,  0.0000,  0.0000)
  57 O      3.824334    3.878176   11.980438    ( 0.0000,  0.0000,  0.0000)
  58 O      7.541404    3.839178   10.479988    ( 0.0000,  0.0000,  0.0000)
  59 O      2.385178    5.740126   10.442894    ( 0.0000,  0.0000,  0.0000)
  60 O      0.987252    5.749386   13.128043    ( 0.0000,  0.0000,  0.0000)
  61 O      6.011872    3.776653   13.180737    ( 0.0000,  0.0000,  0.0000)
  62 Ti     4.178330    3.801221   13.898846    ( 0.0000,  0.0000,  0.0000)
  63 Ti     9.405121    5.754217   13.931629    ( 0.0000,  0.0000,  0.0000)
  64 Ti     1.826533    5.749326   14.687338    ( 0.0000,  0.0000,  0.0000)
  65 Ti     7.226342    3.832849   14.729481    ( 0.0000,  0.0000,  0.0000)
  66 O      2.345667    3.828874   14.805198    ( 0.0000,  0.0000,  0.0000)
  67 O      7.520819    5.750835   14.430044    ( 0.0000,  0.0000,  0.0000)
  68 O      0.177168    5.752361   15.464419    ( 0.0000,  0.0000,  0.0000)
  69 O      5.205149    3.746822   15.567305    ( 0.0000,  0.0000,  0.0000)
  70 O      9.012058    3.812888   13.972015    ( 0.0000,  0.0000,  0.0000)
  71 O      3.835488    5.754740   14.123864    ( 0.0000,  0.0000,  0.0000)
  72 O      8.476572    9.555862    6.000000    ( 0.0000,  0.0000,  0.0000)
  73 O      3.305699    7.644690    6.000000    ( 0.0000,  0.0000,  0.0000)
  74 Ti     1.412752    7.644690    6.752957    ( 0.0000,  0.0000,  0.0000)
  75 Ti     6.583625    9.555862    6.752957    ( 0.0000,  0.0000,  0.0000)
  76 Ti     9.522250    9.555862    7.640878    ( 0.0000,  0.0000,  0.0000)
  77 Ti     4.351376    7.644690    7.640878    ( 0.0000,  0.0000,  0.0000)
  78 O      9.861551    7.644690    7.505914    ( 0.0000,  0.0000,  0.0000)
  79 O      4.690678    9.555862    7.505914    ( 0.0000,  0.0000,  0.0000)
  80 O      7.629303    9.555862    8.393834    ( 0.0000,  0.0000,  0.0000)
  81 O      2.458430    7.644690    8.393834    ( 0.0000,  0.0000,  0.0000)
  82 O      6.244323    7.644690    6.887921    ( 0.0000,  0.0000,  0.0000)
  83 O      1.073450    9.555862    6.887921    ( 0.0000,  0.0000,  0.0000)
  84 O      9.791106    9.556402    9.581419    ( 0.0000,  0.0000,  0.0000)
  85 O      4.624488    7.647850    9.622220    ( 0.0000,  0.0000,  0.0000)
  86 Ti     2.779972    7.653601   10.338240    ( 0.0000,  0.0000,  0.0000)
  87 Ti     7.926882    9.571407   10.384823    ( 0.0000,  0.0000,  0.0000)
  88 Ti     0.488300    9.547992   11.126038    ( 0.0000,  0.0000,  0.0000)
  89 Ti     5.693948    7.647270   11.230458    ( 0.0000,  0.0000,  0.0000)
  90 O      0.909593    7.646629   11.076655    ( 0.0000,  0.0000,  0.0000)
  91 O      6.080465    9.559533   11.084378    ( 0.0000,  0.0000,  0.0000)
  92 O      9.032844    9.566128   11.944123    ( 0.0000,  0.0000,  0.0000)
  93 O      3.823275    7.624090   11.981991    ( 0.0000,  0.0000,  0.0000)
  94 O      7.541152    7.640451   10.481283    ( 0.0000,  0.0000,  0.0000)
  95 O      2.385039    9.553206   10.452968    ( 0.0000,  0.0000,  0.0000)
  96 O      0.928119    9.578797   13.075598    ( 0.0000,  0.0000,  0.0000)
  97 O      6.007980    7.703881   13.183646    ( 0.0000,  0.0000,  0.0000)
  98 Ti     4.174209    7.628537   13.904196    ( 0.0000,  0.0000,  0.0000)
  99 Ti     9.419673    9.627866   14.015834    ( 0.0000,  0.0000,  0.0000)
 100 Ti     1.867500    9.578582   14.599313    ( 0.0000,  0.0000,  0.0000)
 101 Ti     7.222527    7.679774   14.730210    ( 0.0000,  0.0000,  0.0000)
 102 O      2.343003    7.673387   14.811314    ( 0.0000,  0.0000,  0.0000)
 103 O      7.581014    9.621788   14.782997    ( 0.0000,  0.0000,  0.0000)
 104 O      0.234840    9.616542   15.455281    ( 0.0000,  0.0000,  0.0000)
 105 O      5.204772    7.815890   15.568059    ( 0.0000,  0.0000,  0.0000)
 106 O      9.012172    7.688695   13.973481    ( 0.0000,  0.0000,  0.0000)
 107 O      3.802091    9.584128   13.952850    ( 0.0000,  0.0000,  0.0000)
 108 V      5.848922    7.387743   17.185716    ( 0.0000,  0.0000,  0.0000)
 109 V      5.858685    4.132208   17.190112    ( 0.0000,  0.0000,  0.0000)
 110 O      7.511885    4.071697   16.581424    ( 0.0000,  0.0000,  0.0000)
 111 O      5.585330    8.513461   18.277423    ( 0.0000,  0.0000,  0.0000)
 112 O      5.256951    5.759567   17.673328    ( 0.0000,  0.0000,  0.0000)
 113 O      5.580220    3.002278   18.273173    ( 0.0000,  0.0000,  0.0000)
 114 O      7.503542    7.421272   16.578244    ( 0.0000,  0.0000,  0.0000)

Unit cell:
           periodic     x           y           z      points  spacing
  1. axis:    yes   10.341746    0.000000    0.000000    54     0.1915
  2. axis:    yes   -0.000000   11.467000    0.000000    60     0.1911
  3. axis:    no     0.000000    0.000000   23.497201   125     0.1880

  Lengths:  10.341746  11.467000  23.497201
  Angles:   90.000000  90.000000  90.000000

Effective grid spacing dv^(1/3) = 0.1902

                     log10-error:    total        iterations:
           time      wfs    density  energy       fermi  poisson
iter:   1  11:51:44  -2.88   +inf  -955.897957    3             
iter:   2  11:52:54  -3.80  -3.23  -955.895464    2             
iter:   3  11:54:03  -3.85  -3.26  -955.883597    3             
iter:   4  11:55:13  -4.53  -3.46  -955.883194    2             
iter:   5  11:56:23  -4.61  -3.51  -955.882385    2             
iter:   6  11:57:33  -4.53  -3.67  -955.882496    2             
iter:   7  11:58:42  -5.19  -3.70  -955.881984    2             
iter:   8  11:59:52  -5.33  -3.84  -955.881849    2             
iter:   9  12:01:02  -5.44  -4.13  -955.881933    2             
iter:  10  12:02:12  -5.99  -4.12  -955.881787    2             
iter:  11  12:03:21  -6.61  -4.45  -955.881788    1             
iter:  12  12:04:31  -7.37  -4.52  -955.881787    2             
iter:  13  12:05:41  -6.79  -4.58  -955.881793    2             
iter:  14  12:06:50  -7.25  -4.74  -955.881787    2             
iter:  15  12:08:00  -7.06  -4.85  -955.881788    1             
iter:  16  12:09:10  -7.54  -4.92  -955.881785    1             

Converged after 16 iterations.

Dipole moment: (-18.796972, -9.515945, -1.542058) |e|*Ang

Energy contributions relative to reference atoms: (reference = -1044851.132452)

Kinetic:       +696.390269
Potential:     -883.849923
External:        +0.000000
XC:            -776.112335
Entropy (-ST):   -0.000492
Local:           +7.690450
--------------------------
Free energy:   -955.882031
Extrapolated:  -955.881785

Fermi level: -0.78049

Showing only first 2 kpts
 Kpt  Band  Eigenvalues  Occupancy
  0   458     -1.85223    0.22222
  0   459     -1.84671    0.22222
  0   460      0.07701    0.00004
  0   461      0.20111    0.00001

  1   458     -1.86061    0.44444
  1   459     -1.84079    0.44443
  1   460      0.27165    0.00001
  1   461      0.33828    0.00001



Forces in eV/Ang:
  0 O    -1.90517    0.00979    1.56184
  1 O    -1.91938    0.00048    1.55682
  2 Ti    3.83595    0.00072    1.93165
  3 Ti    3.84236   -0.05780    1.94181
  4 Ti   -1.93806   -0.05320   -2.02763
  5 Ti   -1.88594   -0.00145   -2.00342
  6 O     0.89481    0.00716   -0.18513
  7 O     0.86257    0.08520   -0.18009
  8 O    -0.71084    0.04065   -0.61042
  9 O    -0.72743    0.01080   -0.66150
 10 O    -0.27321    0.00050   -0.85890
 11 O    -0.24455    0.08373   -0.85835
 12 O    -0.02322    0.01009    0.03428
 13 O    -0.02352    0.00075    0.05354
 14 Ti    0.07694    0.00015   -0.02811
 15 Ti    0.08072    0.02595    0.00287
 16 Ti    0.03004    0.01763    0.05806
 17 Ti    0.03576    0.00347    0.00932
 18 O     0.00656    0.00477   -0.04661
 19 O     0.01187   -0.01407   -0.03186
 20 O     0.02107    0.00113    0.01700
 21 O     0.03819   -0.00467    0.05159
 22 O     0.01708    0.00609    0.05462
 23 O     0.02678   -0.02581    0.05794
 24 O     0.01713   -0.00483    0.01283
 25 O     0.00695    0.00605    0.05301
 26 Ti   -0.01183    0.05148   -0.00606
 27 Ti    0.10939    0.03126   -0.02489
 28 Ti   -0.03081    0.14124    0.07897
 29 Ti    0.02340   -0.00259   -0.01676
 30 O     0.03207   -0.02928    0.09013
 31 O    -0.03403    0.05961    0.00336
 32 O    -0.02718   -0.02676   -0.04462
 33 O     0.06366   -0.00377   -0.06134
 34 O    -0.08624    0.00646    0.05113
 35 O    -0.08648    0.02157    0.08245
 36 O    -1.91704    0.00063    1.59124
 37 O    -1.88788    0.00938    1.61210
 38 Ti    3.69469   -0.05827    1.80373
 39 Ti    3.73819    0.00139    1.82385
 40 Ti   -1.76847   -0.00097   -1.92951
 41 Ti   -1.68115   -0.06018   -1.64797
 42 O     0.92114    0.06599   -0.19789
 43 O     0.87446    0.00494   -0.17271
 44 O    -0.65895    0.01039   -0.48145
 45 O    -0.71333    0.02189   -0.69839
 46 O    -0.30235    0.07653   -0.86972
 47 O    -0.25714   -0.00075   -0.89965
 48 O    -0.05802    0.00122   -0.07832
 49 O    -0.00548   -0.00015   -0.00393
 50 Ti    0.02760    0.01477    0.04985
 51 Ti    0.00678    0.00469    0.10399
 52 Ti   -0.03855    0.00161   -0.13855
 53 Ti   -0.02136   -0.02442    0.04969
 54 O     0.04582   -0.04600   -0.02300
 55 O     0.06398    0.00053    0.00252
 56 O     0.02265    0.00539    0.00997
 57 O    -0.00799    0.00530    0.06990
 58 O     0.05536   -0.00413    0.12747
 59 O     0.06428   -0.00143   -0.00296
 60 O    -0.42451    0.00145   -0.77509
 61 O     0.03783    0.00868    0.04400
 62 Ti   -0.22184    0.12327    0.01206
 63 Ti    0.01637   -0.01013    0.29107
 64 Ti    0.15815   -0.00314    0.17654
 65 Ti   -0.02348   -0.06581   -0.02878
 66 O     0.08062   -0.16028    0.07149
 67 O    -0.13087   -0.00124    0.24215
 68 O    -0.04563    0.00037   -0.22557
 69 O     0.20229    0.01060    0.04832
 70 O    -0.10964    0.01516    0.13266
 71 O     0.04725   -0.02053   -0.14399
 72 O    -1.90637   -0.00858    1.56070
 73 O    -1.88533   -0.00849    1.61254
 74 Ti    3.69674    0.06070    1.80697
 75 Ti    3.84422    0.05952    1.94155
 76 Ti   -1.93738    0.04955   -2.03265
 77 Ti   -1.68386    0.05738   -1.64303
 78 O     0.92084   -0.05450   -0.19774
 79 O     0.86194   -0.07625   -0.17914
 80 O    -0.71315   -0.02433   -0.61561
 81 O    -0.71080   -0.00067   -0.70426
 82 O    -0.30251   -0.07654   -0.86774
 83 O    -0.24458   -0.08271   -0.85722
 84 O    -0.01860   -0.00825    0.03287
 85 O    -0.00636    0.00218   -0.00651
 86 Ti    0.02506   -0.01313    0.06060
 87 Ti    0.07413   -0.02753    0.01099
 88 Ti    0.03006   -0.01096    0.05284
 89 Ti   -0.03325    0.01900    0.04770
 90 O     0.04625    0.04927   -0.02171
 91 O     0.01472    0.02396   -0.03221
 92 O     0.02037    0.01010    0.01695
 93 O    -0.00772   -0.01392    0.06206
 94 O     0.05804    0.01494    0.12645
 95 O     0.02361    0.03168    0.05471
 96 O     0.02038    0.01700    0.01328
 97 O     0.05457   -0.00739    0.03970
 98 Ti   -0.20901   -0.00380    0.02503
 99 Ti    0.10669   -0.03222   -0.02246
100 Ti   -0.03772   -0.15375    0.08471
101 Ti   -0.01497    0.05460   -0.04555
102 O     0.07597    0.10786    0.07047
103 O    -0.03039   -0.04867    0.00978
104 O    -0.02431    0.01650   -0.04037
105 O     0.18489   -0.09520    0.04117
106 O    -0.10516   -0.00808    0.13740
107 O    -0.07229   -0.05083    0.07473
108 V     0.07974    0.11498   -0.22394
109 V     0.08438   -0.07128   -0.24984
110 O    -0.12809    0.01759    0.18760
111 O    -0.10011    0.05713    0.12177
112 O     0.18448    0.00280    0.35055
113 O    -0.12675   -0.03121    0.12394
114 O    -0.12372    0.00956    0.19111

System changes: positions 

Initializing position-dependent things.

Density initialized from wave functions
                                                
                                                
                                                
                                                
                                                
                                                
                          O                     
                            O                   
              O     O   O V   O Ti              
                  Ti   O O      O    O          
                  O   O V    O      Ti          
           O   O            O Ti  O             
               Ti     Oi   O O                  
         O     OO   OTi    Tii   OTi            
             Tii    Ti    OOO   O               
              O  O O    O Ti   TiOi             
          O Ti   TiOi     O   O      O          
                O      Ti     TiO               
            O   TiO      O  O  O   O Ti         
         Ti     O    O Oi    Ti     O           
              OTi          OTi    O             
             O O    O O         O Ti            
                    Ti     Oi     O             
             Oi     O    O      Ti              
           O     OTi    Ti     O                
          Ti          O      O                  
               O                                
                                                
                                                
                                                
                                                

Positions:
   0 O      8.476572    1.911173    6.000000    ( 0.0000,  0.0000,  0.0000)
   1 O      3.305699    0.000000    6.000000    ( 0.0000,  0.0000,  0.0000)
   2 Ti     1.412752    0.000000    6.752957    ( 0.0000,  0.0000,  0.0000)
   3 Ti     6.583625    1.911173    6.752957    ( 0.0000,  0.0000,  0.0000)
   4 Ti     9.522250    1.911173    7.640878    ( 0.0000,  0.0000,  0.0000)
   5 Ti     4.351376    0.000000    7.640878    ( 0.0000,  0.0000,  0.0000)
   6 O      9.861551    0.000000    7.505914    ( 0.0000,  0.0000,  0.0000)
   7 O      4.690678    1.911173    7.505914    ( 0.0000,  0.0000,  0.0000)
   8 O      7.629303    1.911173    8.393834    ( 0.0000,  0.0000,  0.0000)
   9 O      2.458430    0.000000    8.393834    ( 0.0000,  0.0000,  0.0000)
  10 O      6.244323    0.000000    6.887921    ( 0.0000,  0.0000,  0.0000)
  11 O      1.073450    1.911173    6.887921    ( 0.0000,  0.0000,  0.0000)
[...]
                                                
                                                

Positions:
   0 O      8.476572    1.911173    6.000000    ( 0.0000,  0.0000,  0.0000)
   1 O      3.305699    0.000000    6.000000    ( 0.0000,  0.0000,  0.0000)
   2 Ti     1.412752    0.000000    6.752957    ( 0.0000,  0.0000,  0.0000)
   3 Ti     6.583625    1.911173    6.752957    ( 0.0000,  0.0000,  0.0000)
   4 Ti     9.522250    1.911173    7.640878    ( 0.0000,  0.0000,  0.0000)
   5 Ti     4.351376    0.000000    7.640878    ( 0.0000,  0.0000,  0.0000)
   6 O      9.861551    0.000000    7.505914    ( 0.0000,  0.0000,  0.0000)
   7 O      4.690678    1.911173    7.505914    ( 0.0000,  0.0000,  0.0000)
   8 O      7.629303    1.911173    8.393834    ( 0.0000,  0.0000,  0.0000)
   9 O      2.458430    0.000000    8.393834    ( 0.0000,  0.0000,  0.0000)
  10 O      6.244323    0.000000    6.887921    ( 0.0000,  0.0000,  0.0000)
  11 O      1.073450    1.911173    6.887921    ( 0.0000,  0.0000,  0.0000)
  12 O      9.795586    1.922819    9.604424    ( 0.0000,  0.0000,  0.0000)
  13 O      4.628650   11.476738    9.607971    ( 0.0000,  0.0000,  0.0000)
  14 Ti     2.781784   11.478352   10.403597    ( 0.0000,  0.0000,  0.0000)
  15 Ti     7.954046    1.918518   10.402209    ( 0.0000,  0.0000,  0.0000)
  16 Ti     0.506737    1.934143   11.158140    ( 0.0000,  0.0000,  0.0000)
  17 Ti     5.658993   11.479418   11.174306    ( 0.0000,  0.0000,  0.0000)
  18 O      0.925957   11.478683   11.075134    ( 0.0000,  0.0000,  0.0000)
  19 O      6.091112    1.923905   11.099133    ( 0.0000,  0.0000,  0.0000)
  20 O      9.049605    1.930258   11.985743    ( 0.0000,  0.0000,  0.0000)
  21 O      3.865087    0.017012   11.996354    ( 0.0000,  0.0000,  0.0000)
  22 O      7.569856   11.478969   10.502647    ( 0.0000,  0.0000,  0.0000)
  23 O      2.413190    1.927651   10.500013    ( 0.0000,  0.0000,  0.0000)
  24 O      0.932809    1.926649   13.122027    ( 0.0000,  0.0000,  0.0000)
  25 O      6.084641   11.489529   13.124089    ( 0.0000,  0.0000,  0.0000)
  26 Ti     4.210538    0.018708   14.083413    ( 0.0000,  0.0000,  0.0000)
  27 Ti     9.408190    1.901556   14.055228    ( 0.0000,  0.0000,  0.0000)
  28 Ti     1.854718    1.938660   14.658567    ( 0.0000,  0.0000,  0.0000)
  29 Ti     7.014158   11.492921   14.648378    ( 0.0000,  0.0000,  0.0000)
  30 O      2.374087   11.489885   14.859551    ( 0.0000,  0.0000,  0.0000)
  31 O      7.549731    1.896226   14.818990    ( 0.0000,  0.0000,  0.0000)
  32 O      0.224531    1.928480   15.501348    ( 0.0000,  0.0000,  0.0000)
  33 O      5.397195   11.479815   15.510836    ( 0.0000,  0.0000,  0.0000)
  34 O      9.031322   11.494983   14.069824    ( 0.0000,  0.0000,  0.0000)
  35 O      3.827243    1.940032   14.105745    ( 0.0000,  0.0000,  0.0000)
  36 O      8.476572    5.733518    6.000000    ( 0.0000,  0.0000,  0.0000)
  37 O      3.305699    3.822345    6.000000    ( 0.0000,  0.0000,  0.0000)
  38 Ti     1.412752    3.822345    6.752957    ( 0.0000,  0.0000,  0.0000)
  39 Ti     6.583625    5.733518    6.752957    ( 0.0000,  0.0000,  0.0000)
  40 Ti     9.522250    5.733518    7.640878    ( 0.0000,  0.0000,  0.0000)
  41 Ti     4.351376    3.822345    7.640878    ( 0.0000,  0.0000,  0.0000)
  42 O      9.861551    3.822345    7.505914    ( 0.0000,  0.0000,  0.0000)
  43 O      4.690678    5.733518    7.505914    ( 0.0000,  0.0000,  0.0000)
  44 O      7.629303    5.733518    8.393834    ( 0.0000,  0.0000,  0.0000)
  45 O      2.458430    3.822345    8.393834    ( 0.0000,  0.0000,  0.0000)
  46 O      6.244323    3.822345    6.887921    ( 0.0000,  0.0000,  0.0000)
  47 O      1.073450    5.733518    6.887921    ( 0.0000,  0.0000,  0.0000)
  48 O      9.789995    5.741700    9.599777    ( 0.0000,  0.0000,  0.0000)
  49 O      4.633182    3.837840    9.647117    ( 0.0000,  0.0000,  0.0000)
  50 Ti     2.808245    3.831171   10.350497    ( 0.0000,  0.0000,  0.0000)
  51 Ti     7.944107    5.745683   10.398366    ( 0.0000,  0.0000,  0.0000)
  52 Ti     0.519468    5.743215   11.141045    ( 0.0000,  0.0000,  0.0000)
  53 Ti     5.705661    3.828959   11.289725    ( 0.0000,  0.0000,  0.0000)
  54 O      0.921395    3.834150   11.071178    ( 0.0000,  0.0000,  0.0000)
  55 O      6.101406    5.746213   11.160635    ( 0.0000,  0.0000,  0.0000)
  56 O      9.049264    5.751809   11.975082    ( 0.0000,  0.0000,  0.0000)
  57 O      3.835923    3.847360   12.022348    ( 0.0000,  0.0000,  0.0000)
  58 O      7.555407    3.836062   10.521107    ( 0.0000,  0.0000,  0.0000)
  59 O      2.411956    5.743555   10.489285    ( 0.0000,  0.0000,  0.0000)
  60 O      0.921861    5.753947   13.096107    ( 0.0000,  0.0000,  0.0000)
  61 O      6.018526    3.784424   13.248551    ( 0.0000,  0.0000,  0.0000)
  62 Ti     4.173610    3.849726   13.941964    ( 0.0000,  0.0000,  0.0000)
  63 Ti     9.369468    5.760932   13.999992    ( 0.0000,  0.0000,  0.0000)
  64 Ti     1.820674    5.755247   14.642594    ( 0.0000,  0.0000,  0.0000)
  65 Ti     7.191196    3.830851   14.865435    ( 0.0000,  0.0000,  0.0000)
  66 O      2.342194    3.847695   14.839685    ( 0.0000,  0.0000,  0.0000)
  67 O      7.510330    5.763867   14.646310    ( 0.0000,  0.0000,  0.0000)
  68 O      0.184260    5.761995   15.460162    ( 0.0000,  0.0000,  0.0000)
  69 O      5.221956    3.966811   15.629107    ( 0.0000,  0.0000,  0.0000)
  70 O      8.980652    3.830828   14.090563    ( 0.0000,  0.0000,  0.0000)
  71 O      3.797677    5.758623   14.072908    ( 0.0000,  0.0000,  0.0000)
  72 O      8.476572    9.555862    6.000000    ( 0.0000,  0.0000,  0.0000)
  73 O      3.305699    7.644690    6.000000    ( 0.0000,  0.0000,  0.0000)
  74 Ti     1.412752    7.644690    6.752957    ( 0.0000,  0.0000,  0.0000)
  75 Ti     6.583625    9.555862    6.752957    ( 0.0000,  0.0000,  0.0000)
  76 Ti     9.522250    9.555862    7.640878    ( 0.0000,  0.0000,  0.0000)
  77 Ti     4.351376    7.644690    7.640878    ( 0.0000,  0.0000,  0.0000)
  78 O      9.861551    7.644690    7.505914    ( 0.0000,  0.0000,  0.0000)
  79 O      4.690678    9.555862    7.505914    ( 0.0000,  0.0000,  0.0000)
  80 O      7.629303    9.555862    8.393834    ( 0.0000,  0.0000,  0.0000)
  81 O      2.458430    7.644690    8.393834    ( 0.0000,  0.0000,  0.0000)
  82 O      6.244323    7.644690    6.887921    ( 0.0000,  0.0000,  0.0000)
  83 O      1.073450    9.555862    6.887921    ( 0.0000,  0.0000,  0.0000)
  84 O      9.795754    9.561152    9.603649    ( 0.0000,  0.0000,  0.0000)
  85 O      4.633784    7.646855    9.645430    ( 0.0000,  0.0000,  0.0000)
  86 Ti     2.807740    7.657377   10.350405    ( 0.0000,  0.0000,  0.0000)
  87 Ti     7.954190    9.574287   10.401446    ( 0.0000,  0.0000,  0.0000)
  88 Ti     0.507924    9.553424   11.156625    ( 0.0000,  0.0000,  0.0000)
  89 Ti     5.706086    7.663730   11.286611    ( 0.0000,  0.0000,  0.0000)
  90 O      0.921738    7.655546   11.070221    ( 0.0000,  0.0000,  0.0000)
  91 O      6.091485    9.569382   11.098090    ( 0.0000,  0.0000,  0.0000)
  92 O      9.050171    9.575642   11.984255    ( 0.0000,  0.0000,  0.0000)
  93 O      3.835783    7.655101   12.019243    ( 0.0000,  0.0000,  0.0000)
  94 O      7.555936    7.654214   10.520524    ( 0.0000,  0.0000,  0.0000)
  95 O      2.413435    9.560695   10.499144    ( 0.0000,  0.0000,  0.0000)
  96 O      0.933117    9.580499   13.119786    ( 0.0000,  0.0000,  0.0000)
  97 O      6.017755    7.734886   13.243664    ( 0.0000,  0.0000,  0.0000)
  98 Ti     4.171901    7.661116   13.939348    ( 0.0000,  0.0000,  0.0000)
  99 Ti     9.409735    9.620638   14.050649    ( 0.0000,  0.0000,  0.0000)
 100 Ti     1.853620    9.571393   14.657386    ( 0.0000,  0.0000,  0.0000)
 101 Ti     7.191671    7.694867   14.857218    ( 0.0000,  0.0000,  0.0000)
 102 O      2.340290    7.664984   14.839945    ( 0.0000,  0.0000,  0.0000)
 103 O      7.553606    9.626467   14.807984    ( 0.0000,  0.0000,  0.0000)
 104 O      0.223232    9.601337   15.498523    ( 0.0000,  0.0000,  0.0000)
 105 O      5.219641    7.605098   15.625799    ( 0.0000,  0.0000,  0.0000)
 106 O      8.984189    7.689551   14.088346    ( 0.0000,  0.0000,  0.0000)
 107 O      3.819964    9.573346   14.096617    ( 0.0000,  0.0000,  0.0000)
 108 V      5.835646    7.424660   17.312862    ( 0.0000,  0.0000,  0.0000)
 109 V      5.836952    4.160894   17.315671    ( 0.0000,  0.0000,  0.0000)
 110 O      7.480289    3.929888   16.749141    ( 0.0000,  0.0000,  0.0000)
 111 O      5.359194    8.592651   18.284593    ( 0.0000,  0.0000,  0.0000)
 112 O      5.511772    5.793324   18.014127    ( 0.0000,  0.0000,  0.0000)
 113 O      5.353141    3.005806   18.297669    ( 0.0000,  0.0000,  0.0000)
 114 O      7.479851    7.633081   16.744372    ( 0.0000,  0.0000,  0.0000)

Unit cell:
           periodic     x           y           z      points  spacing
  1. axis:    yes   10.341746    0.000000    0.000000    54     0.1915
  2. axis:    yes   -0.000000   11.467000    0.000000    60     0.1911
  3. axis:    no     0.000000    0.000000   23.497201   125     0.1880

  Lengths:  10.341746  11.467000  23.497201
  Angles:   90.000000  90.000000  90.000000

Effective grid spacing dv^(1/3) = 0.1902

                     log10-error:    total        iterations:
           time      wfs    density  energy       fermi  poisson
iter:   1  00:46:50  -5.31   +inf  -956.167739    1             
iter:   2  00:48:00  -6.15  -4.56  -956.167748    1             
iter:   3  00:49:10  -6.40  -4.58  -956.167740    1             
iter:   4  00:50:20  -6.83  -4.82  -956.167742    1             
iter:   5  00:51:30  -6.92  -4.85  -956.167740    1             
iter:   6  00:52:40  -7.56  -4.99  -956.167739    1             

Converged after 6 iterations.

Dipole moment: (-19.290367, -18.613090, -1.604136) |e|*Ang

Energy contributions relative to reference atoms: (reference = -1044851.132452)

Kinetic:       +672.834523
Potential:     -865.234842
External:        +0.000000
XC:            -771.484189
Entropy (-ST):   -0.000480
Local:           +7.717011
--------------------------
Free energy:   -956.167979
Extrapolated:  -956.167739

Fermi level: -0.78861

Showing only first 2 kpts
 Kpt  Band  Eigenvalues  Occupancy
  0   458     -1.86251    0.22222
  0   459     -1.86116    0.22222
  0   460      0.06552    0.00004
  0   461      0.21041    0.00001

  1   458     -1.87841    0.44444
  1   459     -1.85132    0.44443
  1   460      0.26305    0.00001
  1   461      0.34729    0.00001



Forces in eV/Ang:
  0 O    -1.83877    0.00696    1.58924
  1 O    -1.83885    0.00168    1.58461
  2 Ti    3.86861    0.00083    2.00761
  3 Ti    3.86498   -0.02175    1.99279
  4 Ti   -1.99927   -0.03500   -1.89926
  5 Ti   -1.96807   -0.00224   -1.85676
  6 O     0.88444    0.01285   -0.15858
  7 O     0.84261    0.08126   -0.14021
  8 O    -0.64003    0.03249   -0.46652
  9 O    -0.64646    0.01435   -0.53415
 10 O    -0.29032    0.00011   -0.89607
 11 O    -0.25499    0.08620   -0.89753
 12 O     0.00166   -0.00018    0.00053
 13 O     0.00001    0.00097    0.00251
 14 Ti   -0.00041    0.00143    0.00365
 15 Ti   -0.00053   -0.00257   -0.00130
 16 Ti   -0.00198    0.00206   -0.00006
 17 Ti   -0.00410    0.00166   -0.00130
 18 O    -0.00366    0.00151    0.00241
 19 O    -0.00033   -0.00010    0.00015
 20 O     0.00420    0.00556   -0.00036
 21 O     0.00214    0.00174    0.00170
 22 O     0.00523    0.00144    0.00067
 23 O     0.00108    0.00210   -0.00240
 24 O    -0.00211    0.00593    0.00614
 25 O    -0.00553    0.00151   -0.00201
 26 Ti   -0.00330    0.00309   -0.00053
 27 Ti    0.00088    0.00220    0.00041
 28 Ti   -0.00427    0.00127    0.00297
 29 Ti   -0.00226    0.00184   -0.00403
 30 O    -0.00177    0.00227    0.00575
 31 O    -0.00047    0.00121    0.00516
 32 O    -0.00408   -0.00144    0.00282
 33 O    -0.00101    0.00194    0.00102
 34 O    -0.00101    0.00079   -0.00621
 35 O    -0.00283    0.00166   -0.00028
 36 O    -1.85812    0.00113    1.58849
 37 O    -1.83071    0.00741    1.63567
 38 Ti    3.69047   -0.05176    1.83970
 39 Ti    3.85389    0.00232    1.96798
 40 Ti   -1.98859   -0.00120   -1.89666
 41 Ti   -1.68923   -0.02640   -1.52670
 42 O     0.93296    0.02585   -0.17822
 43 O     0.82633    0.00849   -0.14464
 44 O    -0.68635    0.01504   -0.50823
 45 O    -0.63084    0.01421   -0.51940
 46 O    -0.33395    0.02044   -0.83811
 47 O    -0.23432   -0.00110   -0.87033
 48 O    -0.00245    0.00095    0.00300
 49 O     0.00113   -0.00019   -0.00131
 50 Ti   -0.00379    0.00171    0.00042
 51 Ti   -0.00273    0.00192   -0.00444
 52 Ti   -0.00026    0.00110    0.00007
 53 Ti   -0.00050    0.00085   -0.00329
 54 O    -0.00046    0.00144   -0.00072
 55 O    -0.00453    0.00116   -0.00778
 56 O     0.00166    0.00128    0.00174
 57 O    -0.00045    0.00062    0.00325
 58 O    -0.00099   -0.00037    0.00019
 59 O     0.00400    0.00092    0.00336
 60 O     0.00090    0.00113   -0.00052
 61 O     0.00259    0.00500   -0.00280
 62 Ti   -0.00230   -0.00153   -0.00225
 63 Ti   -0.00366    0.00107   -0.00317
 64 Ti   -0.00347    0.00192    0.00286
 65 Ti    0.00189   -0.00449    0.00034
 66 O    -0.00180   -0.00092    0.00289
 67 O    -0.00025    0.00081    0.00295
 68 O     0.00181    0.00256    0.00248
 69 O    -0.00246    0.00307    0.00045
 70 O     0.00015    0.00237   -0.00143
 71 O    -0.00447    0.00202   -0.00493
 72 O    -1.84117   -0.00443    1.58812
 73 O    -1.83417   -0.00508    1.63313
 74 Ti    3.69313    0.05504    1.83940
 75 Ti    3.86416    0.02471    1.99045
 76 Ti   -1.99612    0.02935   -1.90386
 77 Ti   -1.68839    0.02705   -1.53055
 78 O     0.93240   -0.00491   -0.17829
 79 O     0.84270   -0.05453   -0.13970
 80 O    -0.64058    0.00142   -0.46574
 81 O    -0.63217    0.01313   -0.52470
 82 O    -0.33227   -0.02001   -0.84116
 83 O    -0.25493   -0.08492   -0.89694
 84 O     0.00218    0.00238    0.00052
 85 O     0.00012    0.00290   -0.00106
 86 Ti   -0.00421    0.00069   -0.00083
 87 Ti   -0.00016    0.00455   -0.00196
 88 Ti   -0.00128    0.00081   -0.00043
 89 Ti   -0.00313    0.00264   -0.00294
 90 O    -0.00114    0.00029    0.00047
 91 O    -0.00121    0.00211   -0.00110
 92 O     0.00379   -0.00247   -0.00066
 93 O    -0.00038    0.00246    0.00405
 94 O    -0.00020    0.00197   -0.00047
 95 O    -0.00012    0.00018   -0.00291
 96 O    -0.00219   -0.00048    0.00557
 97 O     0.00164    0.00049   -0.00302
 98 Ti   -0.00243    0.00797   -0.00252
 99 Ti   -0.00037    0.00275    0.00050
100 Ti   -0.00406    0.00389    0.00156
101 Ti    0.00239    0.00638   -0.00077
102 O    -0.00009    0.00600    0.00491
103 O    -0.00122    0.00200    0.00480
104 O    -0.00437    0.00454    0.00126
105 O    -0.00060    0.00017    0.00194
106 O    -0.00057   -0.00146   -0.00118
107 O    -0.00221    0.00145    0.00388
108 V     0.00222    0.00022    0.00155
109 V    -0.00115   -0.00072    0.00002
110 O    -0.00137    0.00869   -0.00077
111 O    -0.00042    0.00625   -0.00213
112 O     0.00119    0.00321    0.00697
113 O    -0.00303   -0.00249   -0.00552
114 O     0.00162   -0.00241   -0.00227

Timing:                                      incl.     excl.
-------------------------------------------------------------------
Density initialized from wave functions:   116.023   116.022   0.2% |
 Symmetrize density:                         0.001     0.001   0.0% |
Forces:                                    906.602   906.602   1.7% ||
Hamiltonian:                                45.066     0.663   0.0% |
 Atomic:                                    14.290     3.329   0.0% |
  XC Correction:                            10.961    10.961   0.0% |
 Calculate atomic Hamiltonians:             21.127    21.127   0.0% |
 Communicate:                                1.661     1.661   0.0% |
 Initialize Hamiltonian:                     0.000     0.000   0.0% |
 Poisson:                                    0.055     0.055   0.0% |
 XC 3D grid:                                 7.271     7.271   0.0% |
LCAO initialization:                       217.912     1.714   0.0% |
 LCAO eigensolver:                          67.885     0.091   0.0% |
  Calculate projections:                     0.000     0.000   0.0% |
  DenseAtomicCorrection:                     0.001     0.001   0.0% |
  Distribute overlap matrix:                 5.954     5.954   0.0% |
  Orbital Layouts:                          54.793    54.793   0.1% |
  Potential matrix:                          0.066     0.066   0.0% |
  Sum over cells:                            6.980     6.980   0.0% |
 LCAO to grid:                             143.381   143.381   0.3% |
 Set positions (LCAO WFS):                   4.932     4.048   0.0% |
  Basic WFS set positions:                   0.003     0.003   0.0% |
  Basis functions set positions:             0.001     0.001   0.0% |
  P tci:                                     0.036     0.036   0.0% |
  ST tci:                                    0.526     0.526   0.0% |
  mktci:                                     0.318     0.318   0.0% |
PWDescriptor:                                0.187     0.187   0.0% |
Redistribute:                                0.086     0.086   0.0% |
SCF-cycle:                               50507.080     1.192   0.0% |
 Davidson:                               48181.737 12637.422  24.3% |---------|
  Apply H:                                6426.691  6219.945  11.9% |----|
   HMM T:                                  206.745   206.745   0.4% |
  Subspace diag:                          5462.263     0.580   0.0% |
   calc_h_matrix:                         3097.687   958.331   1.8% ||
    Apply H:                              2139.356  2069.881   4.0% |-|
     HMM T:                                 69.475    69.475   0.1% |
   diagonalize:                            562.386   562.386   1.1% |
   rotate_psi:                            1801.610  1801.610   3.5% ||
  calc. matrices:                        11240.538  6990.202  13.4% |----|
   Apply H:                               4250.336  4113.550   7.9% |--|
    HMM T:                                 136.786   136.786   0.3% |
  diagonalize:                            8545.955  8545.955  16.4% |------|
  rotate_psi:                             3868.868  3868.868   7.4% |--|
 Density:                                 1428.772     0.018   0.0% |
  Atomic density matrices:                   9.455     9.455   0.0% |
  Mix:                                     292.048   292.048   0.6% |
  Multipole moments:                         0.260     0.260   0.0% |
  Pseudo density:                         1126.989  1126.972   2.2% ||
   Symmetrize density:                       0.017     0.017   0.0% |
 Hamiltonian:                              540.350     8.115   0.0% |
  Atomic:                                  170.697    38.970   0.1% |
   XC Correction:                          131.727   131.727   0.3% |
  Calculate atomic Hamiltonians:           253.615   253.615   0.5% |
  Communicate:                              20.058    20.058   0.0% |
  Poisson:                                   0.641     0.641   0.0% |
  XC 3D grid:                               87.223    87.223   0.2% |
 Orthonormalize:                           355.030     0.066   0.0% |
  calc_s_matrix:                            36.316    36.316   0.1% |
  inverse-cholesky:                         21.055    21.055   0.0% |
  projections:                             230.029   230.029   0.4% |
  rotate_psi_s:                             67.564    67.564   0.1% |
Set symmetry:                                0.001     0.001   0.0% |
Other:                                     259.514   259.514   0.5% |
-------------------------------------------------------------------
Total:                                             52052.469 100.0%

Memory usage: 1.35 GiB
Date: Sat May 25 00:52:57 2019
