
  ___ ___ ___ _ _ _  
 |   |   |_  | | | | 
 | | | | | . | | | | 
 |__ |  _|___|_____|  1.5.1
 |___|_|             

User:   siva@s82n12.grendel.cscaa.dk
Date:   Fri May 24 21:05:41 2019
Arch:   x86_64
Pid:    8340
Python: 3.6.3
gpaw:   /home/siva/gpaw-1.5.1/gpaw
_gpaw:  /home/siva/gpaw-1.5.1/build/bin.linux-x86_64-3.6/gpaw-python
ase:    /home/siva/env1.5/lib/python3.6/site-packages/ase (version 3.17.0)
numpy:  /home/siva/env1.5/lib/python3.6/site-packages/numpy (version 1.16.0)
scipy:  /home/siva/env1.5/lib/python3.6/site-packages/scipy (version 1.2.0)
units:  Angstrom and eV
cores:  28
Extra parameters: {'blacs': True}

Input parameters:
  basis: dzp
  kpts: [3 3 1]
  mode: {ecut: 500.0,
         gammacentered: False,
         name: pw}
  xc: PBE

System changes: positions, numbers, cell, pbc, initial_charges, initial_magmoms 

Initialize ...

O-setup:
  name: Oxygen
  id: 32ecd46bf208036f09c70b0ec9a88b78
  Z: 8
  valence: 6
  core: 2
  charge: 0.0
  file: /home/wido/sw/gpaw/basis/gpaw-setups-0.9.20000/O.PBE.gz
  cutoffs: 0.67(comp), 1.17(filt), 0.83(core), lmax=2
  valence states:
                energy  radius
    2s(2.00)   -23.961   0.688
    2p(4.00)    -9.029   0.598
    *s           3.251   0.688
    *p          18.182   0.598
    *d           0.000   0.619

  LCAO basis set for O:
    Name: dzp
    File: /home/wido/sw/gpaw/basis/gpaw-setups-0.9.20000/O.dzp.basis.gz
    Number of radial functions: 5
    Number of spherical harmonics: 13
      l=0, rc=4.3438 Bohr: 2s-sz confined orbital
      l=1, rc=5.3906 Bohr: 2p-sz confined orbital
      l=0, rc=2.2969 Bohr: 2s-dz split-valence wave
      l=1, rc=2.8906 Bohr: 2p-dz split-valence wave
      l=2, rc=5.3906 Bohr: d-type Gaussian polarization

Ti-setup:
  name: Titanium
  id: d282db07e62ae71292040bf25b25ccdd
  Z: 22
  valence: 12
  core: 10
  charge: 0.0
  file: /home/wido/sw/gpaw/basis/gpaw-setups-0.9.20000/Ti.PBE.gz
  cutoffs: 1.22(comp), 2.23(filt), 1.02(core), lmax=2
  valence states:
                energy  radius
    3s(2.00)   -62.623   1.270
    4s(2.00)    -4.466   1.270
    3p(6.00)   -38.862   1.058
    4p(0.00)    -1.466   1.058
    3d(2.00)    -4.258   1.058
    *d          22.953   1.058

  LCAO basis set for Ti:
    Name: dzp
    File: /home/wido/sw/gpaw/basis/gpaw-setups-0.9.20000/Ti.dzp.basis.gz
    Number of radial functions: 11
    Number of spherical harmonics: 29
      l=0, rc=3.4375 Bohr: 3s-sz confined orbital
      l=0, rc=9.9062 Bohr: 4s-sz confined orbital
      l=1, rc=3.8906 Bohr: 3p-sz confined orbital
      l=1, rc=13.1094 Bohr: 4p-sz confined orbital
      l=2, rc=6.6250 Bohr: 3d-sz confined orbital
      l=0, rc=2.1406 Bohr: 3s-dz split-valence wave
      l=0, rc=6.0156 Bohr: 4s-dz split-valence wave
      l=1, rc=2.3125 Bohr: 3p-dz split-valence wave
      l=1, rc=8.1094 Bohr: 4p-dz split-valence wave
      l=2, rc=3.8594 Bohr: 3d-dz split-valence wave
      l=1, rc=9.9062 Bohr: p-type Gaussian polarization

V-setup:
  name: Vanadium
  id: a8354638d66c808f8c867a10b63fd727
  Z: 23
  valence: 13
  core: 10
  charge: 0.0
  file: /home/wido/sw/gpaw/basis/gpaw-setups-0.9.20000/V.PBE.gz
  cutoffs: 1.19(comp), 2.14(filt), 0.96(core), lmax=2
  valence states:
                energy  radius
    3s(2.00)   -70.222   1.254
    4s(2.00)    -4.702   1.254
    3p(6.00)   -44.043   1.281
    4p(0.00)    -1.444   1.281
    3d(3.00)    -5.164   1.169
    *d          22.047   1.169

  LCAO basis set for V:
    Name: dzp
    File: /home/wido/sw/gpaw/basis/gpaw-setups-0.9.20000/V.dzp.basis.gz
    Number of radial functions: 11
    Number of spherical harmonics: 29
      l=0, rc=3.2656 Bohr: 3s-sz confined orbital
      l=0, rc=9.5312 Bohr: 4s-sz confined orbital
      l=1, rc=3.6719 Bohr: 3p-sz confined orbital
      l=1, rc=12.8750 Bohr: 4p-sz confined orbital
      l=2, rc=6.0938 Bohr: 3d-sz confined orbital
      l=0, rc=2.0625 Bohr: 3s-dz split-valence wave
      l=0, rc=5.7656 Bohr: 4s-dz split-valence wave
      l=1, rc=2.4062 Bohr: 3p-dz split-valence wave
      l=1, rc=7.8906 Bohr: 4p-dz split-valence wave
      l=2, rc=3.6562 Bohr: 3d-dz split-valence wave
      l=1, rc=9.5312 Bohr: p-type Gaussian polarization

Reference energy: -1044851.132452

Spin-paired calculation

Occupation numbers:
  Fermi-Dirac: width=0.1000 eV

Convergence criteria:
  Maximum total energy change: 0.0005 eV / electron
  Maximum integral of absolute density change: 0.0001 electrons
  Maximum integral of absolute eigenstate change: 4e-08 eV^2
  Maximum number of iterations: 333

Symmetries present (total): 1

  ( 1  0  0)
  ( 0  1  0)
  ( 0  0  1)

9 k-points: 3 x 3 x 1 Monkhorst-Pack grid
5 k-points in the irreducible part of the Brillouin zone
       k-points in crystal coordinates                weights
   0:     0.00000000    0.00000000    0.00000000          1/9
   1:     0.00000000    0.33333333    0.00000000          2/9
   2:     0.33333333   -0.33333333    0.00000000          2/9
   3:     0.33333333    0.00000000    0.00000000          2/9
   4:     0.33333333    0.33333333    0.00000000          2/9

Wave functions: Plane wave expansion
  Cutoff energy: 500.000 eV
  Number of coefficients (min, max): 70673, 70768
  Pulay-stress correction: 0.000000 eV/Ang^3 (de/decut=0.000000)
  Using FFTW library
  ScaLapack parameters: grid=1x1, blocksize=None
  Wavefunction extrapolation:
    Improved wavefunction reuse through dual PAW basis 

Eigensolver
   Davidson(niter=2, smin=None, normalize=True) 

Densities:
  Coarse grid: 54*60*125 grid
  Fine grid: 108*120*250 grid
  Total Charge: 0.000000 

Density mixing:
  Method: separate
  Backend: pulay
  Linear mixing parameter: 0.05
  Mixing with 5 old densities
  Damping of long wave oscillations: 50 

Hamiltonian:
  XC and Coulomb potentials evaluated on a 108*120*250 grid
  Using the PBE Exchange-Correlation functional
 

XC parameters: PBE with 2 nearest neighbor stencil

Memory estimate:
  Process memory now: 275.23 MiB
  Calculator: 3687.11 MiB
    Density: 8.19 MiB
      Arrays: 2.89 MiB
      Localized functions: 4.19 MiB
      Mixer: 1.11 MiB
    Hamiltonian: 2.00 MiB
      Arrays: 1.89 MiB
      XC: 0.00 MiB
      Poisson: 0.00 MiB
      vbar: 0.11 MiB
    Wavefunctions: 3676.92 MiB
      Arrays psit_nG: 3001.94 MiB
      Eigensolver: 652.97 MiB
      Projections: 2.55 MiB
      Projectors: 2.51 MiB
      PW-descriptor: 16.94 MiB

Total number of cores used: 28
Domain decomposition: 2 x 2 x 7

Number of atoms: 115
Number of atomic orbitals: 2103
Number of bands in calculation: 556
Bands to converge: occupied states only
Number of valence electrons: 920

... initialized

Initializing position-dependent things.

Density initialized from atomic densities
Creating initial wave functions:
  556 bands from LCAO basis set

                                                
                                                
                                                
                                                
                                                
                                                
                      O                         
                                                
              O     O V O       Ti              
                  Oi O   O      O    O          
                       OV   OO      Ti          
           O   Ti O     O    Ti   O             
                      Oi   O O                  
         O     O    O      Ti     Ti            
             Tii   OOi     OO   O               
              O   O     O Ti   TiOi             
          O Ti   TiO      O   O      O          
           O    O      OTi    TiO               
                TiO      O  O  O   O Ti         
         Ti   O O    O Oi    Ti     O           
         O     Ti    Ti    OTi  O Ti            
             OTi    O O   O                     
                  O Ti     Oi     O             
             Oi     O    O      Ti              
           O     OTi    Ti     O                
          Ti          O      O                  
               O                                
                                                
                                                
                                                
                                                

Positions:
   0 O      8.476572    1.911173    6.000000    ( 0.0000,  0.0000,  0.0000)
   1 O      3.305699    0.000000    6.000000    ( 0.0000,  0.0000,  0.0000)
   2 Ti     1.412752    0.000000    6.752957    ( 0.0000,  0.0000,  0.0000)
   3 Ti     6.583625    1.911173    6.752957    ( 0.0000,  0.0000,  0.0000)
   4 Ti     9.522250    1.911173    7.640878    ( 0.0000,  0.0000,  0.0000)
   5 Ti     4.351376    0.000000    7.640878    ( 0.0000,  0.0000,  0.0000)
   6 O      9.861551    0.000000    7.505914    ( 0.0000,  0.0000,  0.0000)
   7 O      4.690678    1.911173    7.505914    ( 0.0000,  0.0000,  0.0000)
   8 O      7.629303    1.911173    8.393834    ( 0.0000,  0.0000,  0.0000)
   9 O      2.458430    0.000000    8.393834    ( 0.0000,  0.0000,  0.0000)
  10 O      6.244323    0.000000    6.887921    ( 0.0000,  0.0000,  0.0000)
  11 O      1.073450    1.911173    6.887921    ( 0.0000,  0.0000,  0.0000)
  12 O      9.811511    1.918691    9.593149    ( 0.0000,  0.0000,  0.0000)
  13 O      4.640715    0.005790    9.579875    ( 0.0000,  0.0000,  0.0000)
  14 Ti     2.756460    0.021463   10.385325    ( 0.0000,  0.0000,  0.0000)
  15 Ti     7.965166    1.901722   10.375271    ( 0.0000,  0.0000,  0.0000)
  16 Ti     0.502746    1.933115   11.181998    ( 0.0000,  0.0000,  0.0000)
  17 Ti     5.652399   -0.008202   11.130248    ( 0.0000,  0.0000,  0.0000)
  18 O      0.912093    0.008193   11.075447    ( 0.0000,  0.0000,  0.0000)
  19 O      6.086240    1.911912   11.090492    ( 0.0000,  0.0000,  0.0000)
  20 O      9.041974    1.907632   11.955800    ( 0.0000,  0.0000,  0.0000)
  21 O      3.869705   11.465767   11.942374    ( 0.0000,  0.0000,  0.0000)
  22 O      7.566893    0.005339   10.446987    ( 0.0000,  0.0000,  0.0000)
  23 O      2.390471    1.922655   10.447862    ( 0.0000,  0.0000,  0.0000)
  24 O      0.959795    1.878131   13.115215    ( 0.0000,  0.0000,  0.0000)
  25 O      6.129833   11.456188   13.071778    ( 0.0000,  0.0000,  0.0000)
  26 Ti     4.222946    0.067182   14.015101    ( 0.0000,  0.0000,  0.0000)
  27 Ti     9.431045    1.822701   14.012113    ( 0.0000,  0.0000,  0.0000)
  28 Ti     1.894566    1.917971   14.707785    ( 0.0000,  0.0000,  0.0000)
  29 Ti     7.017389   11.439530   14.605834    ( 0.0000,  0.0000,  0.0000)
  30 O      2.396363   11.436979   14.782181    ( 0.0000,  0.0000,  0.0000)
  31 O      7.574232    1.835390   14.775339    ( 0.0000,  0.0000,  0.0000)
  32 O      0.210715    1.884634   15.465204    ( 0.0000,  0.0000,  0.0000)
  33 O      5.407001    0.016456   15.453623    ( 0.0000,  0.0000,  0.0000)
  34 O      9.045673   11.425759   13.958628    ( 0.0000,  0.0000,  0.0000)
  35 O      3.848084    1.899559   13.967194    ( 0.0000,  0.0000,  0.0000)
  36 O      8.476572    5.733518    6.000000    ( 0.0000,  0.0000,  0.0000)
  37 O      3.305699    3.822345    6.000000    ( 0.0000,  0.0000,  0.0000)
  38 Ti     1.412752    3.822345    6.752957    ( 0.0000,  0.0000,  0.0000)
  39 Ti     6.583625    5.733518    6.752957    ( 0.0000,  0.0000,  0.0000)
  40 Ti     9.522250    5.733518    7.640878    ( 0.0000,  0.0000,  0.0000)
  41 Ti     4.351376    3.822345    7.640878    ( 0.0000,  0.0000,  0.0000)
  42 O      9.861551    3.822345    7.505914    ( 0.0000,  0.0000,  0.0000)
  43 O      4.690678    5.733518    7.505914    ( 0.0000,  0.0000,  0.0000)
  44 O      7.629303    5.733518    8.393834    ( 0.0000,  0.0000,  0.0000)
  45 O      2.458430    3.822345    8.393834    ( 0.0000,  0.0000,  0.0000)
  46 O      6.244323    3.822345    6.887921    ( 0.0000,  0.0000,  0.0000)
  47 O      1.073450    5.733518    6.887921    ( 0.0000,  0.0000,  0.0000)
  48 O      9.801900    5.738130    9.599161    ( 0.0000,  0.0000,  0.0000)
  49 O      4.639672    3.821685    9.608823    ( 0.0000,  0.0000,  0.0000)
  50 Ti     2.788564    3.829733   10.314198    ( 0.0000,  0.0000,  0.0000)
  51 Ti     8.024356    5.717847   10.355653    ( 0.0000,  0.0000,  0.0000)
  52 Ti     0.535182    5.709761   11.275500    ( 0.0000,  0.0000,  0.0000)
  53 Ti     5.734499    3.806802   11.215490    ( 0.0000,  0.0000,  0.0000)
  54 O      0.905196    3.822207   11.093509    ( 0.0000,  0.0000,  0.0000)
  55 O      6.064944    5.722492   11.099781    ( 0.0000,  0.0000,  0.0000)
  56 O      9.027306    5.710144   11.959487    ( 0.0000,  0.0000,  0.0000)
  57 O      3.857061    3.813085   11.946451    ( 0.0000,  0.0000,  0.0000)
  58 O      7.556661    3.820307   10.457106    ( 0.0000,  0.0000,  0.0000)
  59 O      2.385167    5.726908   10.451644    ( 0.0000,  0.0000,  0.0000)
  60 O      0.904557    5.778586   13.131629    ( 0.0000,  0.0000,  0.0000)
  61 O      6.065781    3.812262   13.211603    ( 0.0000,  0.0000,  0.0000)
  62 Ti     4.168425    3.906785   13.809376    ( 0.0000,  0.0000,  0.0000)
  63 Ti     9.475705    5.752948   13.992578    ( 0.0000,  0.0000,  0.0000)
  64 Ti     1.943714    5.710721   14.940801    ( 0.0000,  0.0000,  0.0000)
  65 Ti     7.247612    3.798746   14.777942    ( 0.0000,  0.0000,  0.0000)
  66 O      2.338791    3.834903   14.630478    ( 0.0000,  0.0000,  0.0000)
  67 O      7.542299    5.763664   14.791096    ( 0.0000,  0.0000,  0.0000)
  68 O      0.203981    5.703090   15.489232    ( 0.0000,  0.0000,  0.0000)
  69 O      5.185869    3.842240   15.558774    ( 0.0000,  0.0000,  0.0000)
  70 O      8.980210    3.810732   13.997218    ( 0.0000,  0.0000,  0.0000)
  71 O      3.871086    5.736401   13.928649    ( 0.0000,  0.0000,  0.0000)
  72 O      8.476572    9.555862    6.000000    ( 0.0000,  0.0000,  0.0000)
  73 O      3.305699    7.644690    6.000000    ( 0.0000,  0.0000,  0.0000)
  74 Ti     1.412752    7.644690    6.752957    ( 0.0000,  0.0000,  0.0000)
  75 Ti     6.583625    9.555862    6.752957    ( 0.0000,  0.0000,  0.0000)
  76 Ti     9.522250    9.555862    7.640878    ( 0.0000,  0.0000,  0.0000)
  77 Ti     4.351376    7.644690    7.640878    ( 0.0000,  0.0000,  0.0000)
  78 O      9.861551    7.644690    7.505914    ( 0.0000,  0.0000,  0.0000)
  79 O      4.690678    9.555862    7.505914    ( 0.0000,  0.0000,  0.0000)
  80 O      7.629303    9.555862    8.393834    ( 0.0000,  0.0000,  0.0000)
  81 O      2.458430    7.644690    8.393834    ( 0.0000,  0.0000,  0.0000)
  82 O      6.244323    7.644690    6.887921    ( 0.0000,  0.0000,  0.0000)
  83 O      1.073450    9.555862    6.887921    ( 0.0000,  0.0000,  0.0000)
  84 O      9.808716    9.566029    9.578367    ( 0.0000,  0.0000,  0.0000)
  85 O      4.640843    7.638349    9.582773    ( 0.0000,  0.0000,  0.0000)
  86 Ti     2.708771    7.651463   10.329481    ( 0.0000,  0.0000,  0.0000)
  87 Ti     7.924277    9.583229   10.397026    ( 0.0000,  0.0000,  0.0000)
  88 Ti     0.486945    9.568243   11.115598    ( 0.0000,  0.0000,  0.0000)
  89 Ti     5.725740    7.585831   11.078849    ( 0.0000,  0.0000,  0.0000)
  90 O      0.913542    7.651564   11.076387    ( 0.0000,  0.0000,  0.0000)
  91 O      6.087902    9.556910   11.077531    ( 0.0000,  0.0000,  0.0000)
  92 O      9.024892    9.536213   11.941637    ( 0.0000,  0.0000,  0.0000)
  93 O      3.845215    7.651090   11.933802    ( 0.0000,  0.0000,  0.0000)
  94 O      7.551457    7.627159   10.446508    ( 0.0000,  0.0000,  0.0000)
  95 O      2.381525    9.556980   10.444622    ( 0.0000,  0.0000,  0.0000)
  96 O      0.904968    9.599226   13.065778    ( 0.0000,  0.0000,  0.0000)
  97 O      6.082530    7.669963   13.106801    ( 0.0000,  0.0000,  0.0000)
  98 Ti     4.097853    7.703252   13.780885    ( 0.0000,  0.0000,  0.0000)
  99 Ti     9.396411    9.539853   14.026605    ( 0.0000,  0.0000,  0.0000)
 100 Ti     1.852509    9.583948   14.571189    ( 0.0000,  0.0000,  0.0000)
 101 Ti     7.047202    7.602222   14.590999    ( 0.0000,  0.0000,  0.0000)
 102 O      2.363074    7.699428   14.597047    ( 0.0000,  0.0000,  0.0000)
 103 O      7.552286    9.521710   14.821608    ( 0.0000,  0.0000,  0.0000)
 104 O      0.238339    9.511766   15.446822    ( 0.0000,  0.0000,  0.0000)
 105 O      5.370264    7.461269   15.606299    ( 0.0000,  0.0000,  0.0000)
 106 O      8.976519    7.629671   13.963278    ( 0.0000,  0.0000,  0.0000)
 107 O      3.889744    9.554981   13.958337    ( 0.0000,  0.0000,  0.0000)
 108 V      4.411705    6.729406   17.026563    ( 0.0000,  0.0000,  0.0000)
 109 V      5.789881    3.878284   17.199277    ( 0.0000,  0.0000,  0.0000)
 110 O      5.142998    2.646185   18.047778    ( 0.0000,  0.0000,  0.0000)
 111 O      2.902541    5.948166   16.544766    ( 0.0000,  0.0000,  0.0000)
 112 O      5.408287    5.521379   17.865078    ( 0.0000,  0.0000,  0.0000)
 113 O      4.082982    7.899074   18.056509    ( 0.0000,  0.0000,  0.0000)
 114 O      7.464276    3.741090   16.725312    ( 0.0000,  0.0000,  0.0000)

Unit cell:
           periodic     x           y           z      points  spacing
  1. axis:    yes   10.341746    0.000000    0.000000    54     0.1915
  2. axis:    yes   -0.000000   11.467000    0.000000    60     0.1911
  3. axis:    no     0.000000    0.000000   23.497201   125     0.1880

  Lengths:  10.341746  11.467000  23.497201
  Angles:   90.000000  90.000000  90.000000

Effective grid spacing dv^(1/3) = 0.1902

                     log10-error:    total        iterations:
           time      wfs    density  energy       fermi  poisson
iter:   1  21:09:50  -0.12   +inf  -1092.334175    1             
iter:   2  21:10:44  -1.03  -0.96  -1045.114681    2             
iter:   3  21:11:39  +0.45  -1.01  -950.564682    5             
iter:   4  21:12:34  -0.98  -1.35  -963.746129    4             
iter:   5  21:13:28  -1.15  -1.28  -980.059995    2             
iter:   6  21:14:23  -0.12  -1.25  -971.223637    5             
iter:   7  21:15:17  -0.65  -1.64  -969.701849    4             
iter:   8  21:16:12  -1.93  -1.63  -963.575815    3             
iter:   9  21:17:06  -0.91  -1.71  -955.382225    2             
iter:  10  21:18:01  -1.73  -2.11  -956.077452    3             
iter:  11  21:18:56  -2.62  -2.18  -956.410017    3             
iter:  12  21:19:50  -1.70  -2.22  -955.923018    3             
iter:  13  21:20:45  -2.08  -2.34  -955.947862    3             
iter:  14  21:21:39  -2.77  -2.44  -955.774741    3             
iter:  15  21:22:34  -2.57  -2.56  -955.687566    2             
iter:  16  21:23:28  -3.21  -2.69  -955.680035    3             
iter:  17  21:24:23  -3.91  -2.71  -955.671654    2             
iter:  18  21:25:17  -3.97  -2.74  -955.675869    2             
iter:  19  21:26:12  -3.85  -2.85  -955.680233    2             
iter:  20  21:27:06  -4.00  -3.17  -955.684083    2             
iter:  21  21:28:01  -5.14  -3.23  -955.680688    2             
iter:  22  21:28:55  -3.62  -3.25  -955.682149    3             
iter:  23  21:29:50  -4.57  -3.43  -955.677792    2             
iter:  24  21:30:44  -4.50  -3.70  -955.678316    2             
iter:  25  21:31:39  -5.48  -3.68  -955.677544    2             
iter:  26  21:32:33  -5.04  -3.81  -955.677651    2             
iter:  27  21:33:28  -5.79  -3.92  -955.677485    2             
iter:  28  21:34:22  -5.71  -4.02  -955.677506    1             
iter:  29  21:35:17  -6.09  -4.03  -955.677464    2             
iter:  30  21:36:11  -6.48  -4.34  -955.677457    2             
iter:  31  21:37:06  -6.19  -4.56  -955.677453    1             
iter:  32  21:38:00  -6.92  -4.72  -955.677446    1             
iter:  33  21:38:55  -7.31  -4.83  -955.677442    1             
iter:  34  21:39:49  -7.91  -4.89  -955.677442    1             

Converged after 34 iterations.

Dipole moment: (-16.774120, 1.867929, -1.577360) |e|*Ang

Energy contributions relative to reference atoms: (reference = -1044851.132452)

Kinetic:       +687.609491
Potential:     -876.625376
External:        +0.000000
XC:            -774.318883
Entropy (-ST):   -0.000566
Local:           +7.657609
--------------------------
Free energy:   -955.677725
Extrapolated:  -955.677442

Fermi level: -0.77766

Showing only first 2 kpts
 Kpt  Band  Eigenvalues  Occupancy
  0   458     -1.84059    0.22222
  0   459     -1.83518    0.22222
  0   460      0.06023    0.00005
  0   461      0.21411    0.00001

  1   458     -1.85785    0.44444
  1   459     -1.82395    0.44443
  1   460      0.25234    0.00001
  1   461      0.34781    0.00001



Forces in eV/Ang:
  0 O    -1.88359    0.00665    1.57073
  1 O    -1.92455    0.00087    1.55746
  2 Ti    3.83203    0.00221    1.92831
  3 Ti    3.82412   -0.02687    1.92159
  4 Ti   -1.90628   -0.02702   -1.91574
  5 Ti   -1.86707   -0.00063   -2.05574
  6 O     0.90194    0.02917   -0.19666
  7 O     0.84945    0.05891   -0.19307
  8 O    -0.62346    0.00520   -0.56648
  9 O    -0.65594    0.00911   -0.56589
 10 O    -0.28410    0.02299   -0.85762
 11 O    -0.23073    0.10284   -0.90096
 12 O    -0.07249    0.00113    0.11385
 13 O    -0.19273    0.00218    0.01287
 14 Ti    0.05432   -0.04770   -0.16794
 15 Ti   -0.09912    0.03030   -0.13921
 16 Ti    0.00138   -0.01319   -0.30215
 17 Ti    0.13528    0.00210    0.05136
 18 O     0.11457    0.05891   -0.04809
 19 O     0.19182   -0.07738   -0.07106
 20 O     0.14301   -0.01087    0.25955
 21 O    -0.01909    0.01757    0.16304
 22 O     0.02273    0.02522    0.07069
 23 O    -0.01588   -0.00636    0.10992
 24 O     0.22602   -0.03556    0.70253
 25 O    -0.23706   -0.00979   -0.01458
 26 Ti    0.35615   -0.24359   -0.19564
 27 Ti   -0.43756    0.15634   -0.21223
 28 Ti   -0.67130    0.03985   -1.53792
 29 Ti    0.19054   -0.00817    0.07516
 30 O    -0.02054    0.65130    0.43626
 31 O     0.20992   -0.07410   -0.17513
 32 O     0.62366   -0.02312    0.35308
 33 O    -0.07551   -0.01472   -0.01668
 34 O    -0.12856    0.04110    0.18105
 35 O    -0.41944    0.05584    0.35600
 36 O    -1.90721    0.00103    1.53325
 37 O    -1.95259    0.00510    1.60234
 38 Ti    3.60554   -0.04793    1.69580
 39 Ti    3.90370   -0.00034    1.93067
 40 Ti   -1.88691    0.00807   -1.65234
 41 Ti   -1.47709   -0.02744   -1.72018
 42 O     0.95644   -0.00790   -0.21834
 43 O     0.81387   -0.00684   -0.18917
 44 O    -0.75237   -0.02993   -0.77077
 45 O    -0.69727    0.00705   -0.70372
 46 O    -0.33012   -0.00233   -0.86755
 47 O    -0.18812    0.00014   -0.90193
 48 O     0.00546   -0.00733    0.07886
 49 O    -0.10459   -0.00413    0.03778
 50 Ti    0.00634    0.03596   -0.02355
 51 Ti   -0.15986    0.02899   -0.05096
 52 Ti   -0.00462    0.08678   -0.09289
 53 Ti   -0.00087    0.03058    0.13048
 54 O     0.18431   -0.08229   -0.04229
 55 O     0.20171   -0.03517   -0.05864
 56 O     0.01281   -0.01526    0.17574
 57 O    -0.04190   -0.05138   -0.06779
 58 O     0.06545   -0.03541    0.07721
 59 O     0.02050    0.01668    0.13484
 60 O     0.14697   -0.00078    0.13283
 61 O    -0.11258   -0.02555   -0.34601
 62 Ti    0.47040   -0.00432    0.29324
 63 Ti   -0.22578   -0.07025   -0.03401
 64 Ti    0.08594    0.33631    0.10438
 65 Ti   -0.29316    0.03776    0.52773
 66 O    -0.13587   -0.66545    0.64919
 67 O     0.12354   -0.02705   -0.06714
 68 O    -0.03090    0.01376    0.17442
 69 O    -0.01782    0.03411   -0.59664
 70 O     0.08995   -0.10303    0.16766
 71 O    -0.22798    0.08543   -0.02750
 72 O    -1.89121   -0.00108    1.56075
 73 O    -1.97747   -0.00658    1.61030
 74 Ti    3.56651    0.05070    1.66817
 75 Ti    3.87902    0.02098    1.95889
 76 Ti   -2.01009    0.01954   -2.07092
 77 Ti   -1.53120    0.02343   -2.05526
 78 O     0.96854    0.00842   -0.21445
 79 O     0.83571   -0.05552   -0.17133
 80 O    -0.65205   -0.01831   -0.58955
 81 O    -0.69062   -0.00587   -0.59539
 82 O    -0.33656   -0.02075   -0.87334
 83 O    -0.21678   -0.10421   -0.85158
 84 O    -0.17057    0.00360    0.02224
 85 O    -0.19871   -0.00468    0.00632
 86 Ti    0.12246   -0.02686   -0.03650
 87 Ti    0.02811   -0.10509   -0.15308
 88 Ti    0.03476   -0.05439    0.04573
 89 Ti   -0.04519    0.08897    0.22999
 90 O     0.08683   -0.01797   -0.07745
 91 O     0.12172   -0.02734   -0.08518
 92 O     0.03193    0.00153    0.12151
 93 O    -0.00667    0.00415   -0.15047
 94 O     0.08712    0.03283    0.03493
 95 O     0.02442    0.04691    0.04004
 96 O     0.04732    0.04136    0.02434
 97 O    -0.09171    0.01517    0.00608
 98 Ti    0.25874   -0.20104    0.08588
 99 Ti   -0.12777   -0.13025   -0.15205
100 Ti    0.07176   -0.34931   -0.02263
101 Ti    0.00829   -0.04135    0.12908
102 O    -0.14671   -0.04606    0.25918
103 O     0.03606    0.05712    0.15238
104 O     0.10089    0.01990    0.06317
105 O    -0.03260    0.17973   -0.42065
106 O    -0.13971    0.09342    0.15913
107 O    -0.15220    0.23171    0.21288
108 V     0.09310   -0.04710    0.43935
109 V    -0.61337   -0.99473    0.90648
110 O     0.71906    0.92523   -0.42504
111 O    -0.05052   -0.01902   -0.09875
112 O    -0.17019    0.32310    0.07646
113 O    -0.00826   -0.07766   -0.14861
114 O     0.00567   -0.11333   -0.41530

System changes: positions 

Initializing position-dependent things.

Density initialized from wave functions
                                                
                                                
                                                
                                                
                                                
                                                
                      O                         
                                                
              O     O V O       Ti              
                  Oi O   O      O    O          
                       OV   OO      Ti          
           O   Ti O     O    Ti   O             
                      Oi   O O                  
         O     O    O      Ti     Ti            
             Tii   OOi     OO   O               
              O   O     O Ti   TiOi             
          O Ti   TiO      O    O     O          
           O    O      OTi    TiO               
                TiO      O  O  O   O Ti         
         Ti   O O    O Oi    Ti     O           
         O     Ti    Ti    OTi  O Ti            
             OTi    O O   O                     
                  O Ti     Oi     O             
             Oi     O    O      Ti              
           O     OTi    Ti     O                
          Ti          O      O                  
               O                                
                                                
                                                
                                                
                                                

Positions:
   0 O      8.476572    1.911173    6.000000    ( 0.0000,  0.0000,  0.0000)
   1 O      3.305699    0.000000    6.000000    ( 0.0000,  0.0000,  0.0000)
   2 Ti     1.412752    0.000000    6.752957    ( 0.0000,  0.0000,  0.0000)
   3 Ti     6.583625    1.911173    6.752957    ( 0.0000,  0.0000,  0.0000)
   4 Ti     9.522250    1.911173    7.640878    ( 0.0000,  0.0000,  0.0000)
   5 Ti     4.351376    0.000000    7.640878    ( 0.0000,  0.0000,  0.0000)
   6 O      9.861551    0.000000    7.505914    ( 0.0000,  0.0000,  0.0000)
   7 O      4.690678    1.911173    7.505914    ( 0.0000,  0.0000,  0.0000)
   8 O      7.629303    1.911173    8.393834    ( 0.0000,  0.0000,  0.0000)
   9 O      2.458430    0.000000    8.393834    ( 0.0000,  0.0000,  0.0000)
  10 O      6.244323    0.000000    6.887921    ( 0.0000,  0.0000,  0.0000)
  11 O      1.073450    1.911173    6.887921    ( 0.0000,  0.0000,  0.0000)
  12 O      9.810476    1.918708    9.594775    ( 0.0000,  0.0000,  0.0000)
  13 O      4.637961    0.005821    9.580058    ( 0.0000,  0.0000,  0.0000)
  14 Ti     2.757236    0.020782   10.382926    ( 0.0000,  0.0000,  0.0000)
  15 Ti     7.963750    1.902155   10.373283    ( 0.0000,  0.0000,  0.0000)
  16 Ti     0.502766    1.932926   11.177681    ( 0.0000,  0.0000,  0.0000)
  17 Ti     5.654332   -0.008173   11.130981    ( 0.0000,  0.0000,  0.0000)
  18 O      0.913729    0.009035   11.074760    ( 0.0000,  0.0000,  0.0000)
  19 O      6.088980    1.910807   11.089477    ( 0.0000,  0.0000,  0.0000)
  20 O      9.044017    1.907477   11.959507    ( 0.0000,  0.0000,  0.0000)
  21 O      3.869432   11.466018   11.944703    ( 0.0000,  0.0000,  0.0000)
  22 O      7.567218    0.005699   10.447997    ( 0.0000,  0.0000,  0.0000)
  23 O      2.390244    1.922564   10.449432    ( 0.0000,  0.0000,  0.0000)
  24 O      0.963024    1.877623   13.125251    ( 0.0000,  0.0000,  0.0000)
  25 O      6.126447   11.456048   13.071570    ( 0.0000,  0.0000,  0.0000)
  26 Ti     4.228034    0.063702   14.012306    ( 0.0000,  0.0000,  0.0000)
  27 Ti     9.424794    1.824935   14.009081    ( 0.0000,  0.0000,  0.0000)
  28 Ti     1.884976    1.918540   14.685815    ( 0.0000,  0.0000,  0.0000)
  29 Ti     7.020111   11.439413   14.606907    ( 0.0000,  0.0000,  0.0000)
  30 O      2.396070   11.446283   14.788414    ( 0.0000,  0.0000,  0.0000)
  31 O      7.577231    1.834332   14.772837    ( 0.0000,  0.0000,  0.0000)
  32 O      0.219625    1.884304   15.470248    ( 0.0000,  0.0000,  0.0000)
  33 O      5.405922    0.016246   15.453384    ( 0.0000,  0.0000,  0.0000)
  34 O      9.043836   11.426346   13.961215    ( 0.0000,  0.0000,  0.0000)
  35 O      3.842092    1.900356   13.972280    ( 0.0000,  0.0000,  0.0000)
  36 O      8.476572    5.733518    6.000000    ( 0.0000,  0.0000,  0.0000)
  37 O      3.305699    3.822345    6.000000    ( 0.0000,  0.0000,  0.0000)
  38 Ti     1.412752    3.822345    6.752957    ( 0.0000,  0.0000,  0.0000)
  39 Ti     6.583625    5.733518    6.752957    ( 0.0000,  0.0000,  0.0000)
  40 Ti     9.522250    5.733518    7.640878    ( 0.0000,  0.0000,  0.0000)
  41 Ti     4.351376    3.822345    7.640878    ( 0.0000,  0.0000,  0.0000)
  42 O      9.861551    3.822345    7.505914    ( 0.0000,  0.0000,  0.0000)
  43 O      4.690678    5.733518    7.505914    ( 0.0000,  0.0000,  0.0000)
  44 O      7.629303    5.733518    8.393834    ( 0.0000,  0.0000,  0.0000)
  45 O      2.458430    3.822345    8.393834    ( 0.0000,  0.0000,  0.0000)
  46 O      6.244323    3.822345    6.887921    ( 0.0000,  0.0000,  0.0000)
  47 O      1.073450    5.733518    6.887921    ( 0.0000,  0.0000,  0.0000)
  48 O      9.801978    5.738025    9.600287    ( 0.0000,  0.0000,  0.0000)
  49 O      4.638178    3.821626    9.609363    ( 0.0000,  0.0000,  0.0000)
  50 Ti     2.788654    3.830247   10.313861    ( 0.0000,  0.0000,  0.0000)
  51 Ti     8.022073    5.718261   10.354925    ( 0.0000,  0.0000,  0.0000)
  52 Ti     0.535115    5.711001   11.274173    ( 0.0000,  0.0000,  0.0000)
  53 Ti     5.734486    3.807239   11.217354    ( 0.0000,  0.0000,  0.0000)
  54 O      0.907829    3.821031   11.092905    ( 0.0000,  0.0000,  0.0000)
  55 O      6.067825    5.721989   11.098944    ( 0.0000,  0.0000,  0.0000)
  56 O      9.027489    5.709926   11.961998    ( 0.0000,  0.0000,  0.0000)
  57 O      3.856462    3.812351   11.945482    ( 0.0000,  0.0000,  0.0000)
  58 O      7.557596    3.819801   10.458209    ( 0.0000,  0.0000,  0.0000)
  59 O      2.385459    5.727146   10.453570    ( 0.0000,  0.0000,  0.0000)
  60 O      0.906656    5.778575   13.133526    ( 0.0000,  0.0000,  0.0000)
  61 O      6.064172    3.811897   13.206660    ( 0.0000,  0.0000,  0.0000)
  62 Ti     4.175145    3.906723   13.813565    ( 0.0000,  0.0000,  0.0000)
  63 Ti     9.472479    5.751945   13.992092    ( 0.0000,  0.0000,  0.0000)
  64 Ti     1.944942    5.715525   14.942292    ( 0.0000,  0.0000,  0.0000)
  65 Ti     7.243424    3.799285   14.785481    ( 0.0000,  0.0000,  0.0000)
  66 O      2.336850    3.825397   14.639752    ( 0.0000,  0.0000,  0.0000)
  67 O      7.544064    5.763278   14.790137    ( 0.0000,  0.0000,  0.0000)
  68 O      0.203540    5.703287   15.491724    ( 0.0000,  0.0000,  0.0000)
  69 O      5.185614    3.842727   15.550250    ( 0.0000,  0.0000,  0.0000)
  70 O      8.981495    3.809260   13.999614    ( 0.0000,  0.0000,  0.0000)
  71 O      3.867829    5.737621   13.928256    ( 0.0000,  0.0000,  0.0000)
  72 O      8.476572    9.555862    6.000000    ( 0.0000,  0.0000,  0.0000)
  73 O      3.305699    7.644690    6.000000    ( 0.0000,  0.0000,  0.0000)
  74 Ti     1.412752    7.644690    6.752957    ( 0.0000,  0.0000,  0.0000)
  75 Ti     6.583625    9.555862    6.752957    ( 0.0000,  0.0000,  0.0000)
  76 Ti     9.522250    9.555862    7.640878    ( 0.0000,  0.0000,  0.0000)
  77 Ti     4.351376    7.644690    7.640878    ( 0.0000,  0.0000,  0.0000)
  78 O      9.861551    7.644690    7.505914    ( 0.0000,  0.0000,  0.0000)
  79 O      4.690678    9.555862    7.505914    ( 0.0000,  0.0000,  0.0000)
  80 O      7.629303    9.555862    8.393834    ( 0.0000,  0.0000,  0.0000)
  81 O      2.458430    7.644690    8.393834    ( 0.0000,  0.0000,  0.0000)
  82 O      6.244323    7.644690    6.887921    ( 0.0000,  0.0000,  0.0000)
  83 O      1.073450    9.555862    6.887921    ( 0.0000,  0.0000,  0.0000)
  84 O      9.806279    9.566080    9.578684    ( 0.0000,  0.0000,  0.0000)
  85 O      4.638005    7.638282    9.582863    ( 0.0000,  0.0000,  0.0000)
  86 Ti     2.710521    7.651079   10.328959    ( 0.0000,  0.0000,  0.0000)
  87 Ti     7.924678    9.581727   10.394839    ( 0.0000,  0.0000,  0.0000)
  88 Ti     0.487442    9.567466   11.116251    ( 0.0000,  0.0000,  0.0000)
  89 Ti     5.725094    7.587102   11.082135    ( 0.0000,  0.0000,  0.0000)
  90 O      0.914783    7.651307   11.075280    ( 0.0000,  0.0000,  0.0000)
  91 O      6.089641    9.556520   11.076314    ( 0.0000,  0.0000,  0.0000)
  92 O      9.025349    9.536234   11.943373    ( 0.0000,  0.0000,  0.0000)
  93 O      3.845119    7.651149   11.931652    ( 0.0000,  0.0000,  0.0000)
  94 O      7.552701    7.627628   10.447007    ( 0.0000,  0.0000,  0.0000)
  95 O      2.381874    9.557650   10.445194    ( 0.0000,  0.0000,  0.0000)
  96 O      0.905644    9.599817   13.066126    ( 0.0000,  0.0000,  0.0000)
  97 O      6.081220    7.670179   13.106888    ( 0.0000,  0.0000,  0.0000)
  98 Ti     4.101549    7.700380   13.782112    ( 0.0000,  0.0000,  0.0000)
  99 Ti     9.394586    9.537992   14.024432    ( 0.0000,  0.0000,  0.0000)
 100 Ti     1.853535    9.578958   14.570865    ( 0.0000,  0.0000,  0.0000)
 101 Ti     7.047320    7.601631   14.592843    ( 0.0000,  0.0000,  0.0000)
 102 O      2.360978    7.698770   14.600750    ( 0.0000,  0.0000,  0.0000)
 103 O      7.552802    9.522526   14.823785    ( 0.0000,  0.0000,  0.0000)
 104 O      0.239780    9.512050   15.447724    ( 0.0000,  0.0000,  0.0000)
 105 O      5.369798    7.463837   15.600290    ( 0.0000,  0.0000,  0.0000)
 106 O      8.974523    7.631006   13.965551    ( 0.0000,  0.0000,  0.0000)
 107 O      3.887569    9.558291   13.961379    ( 0.0000,  0.0000,  0.0000)
 108 V      4.413035    6.728733   17.032839    ( 0.0000,  0.0000,  0.0000)
 109 V      5.781119    3.864073   17.212226    ( 0.0000,  0.0000,  0.0000)
 110 O      5.153271    2.659403   18.041706    ( 0.0000,  0.0000,  0.0000)
 111 O      2.901819    5.947895   16.543355    ( 0.0000,  0.0000,  0.0000)
 112 O      5.405856    5.525994   17.866170    ( 0.0000,  0.0000,  0.0000)
 113 O      4.082864    7.897964   18.054386    ( 0.0000,  0.0000,  0.0000)
 114 O      7.464357    3.739471   16.719379    ( 0.0000,  0.0000,  0.0000)

Unit cell:
           periodic     x           y           z      points  spacing
  1. axis:    yes   10.341746    0.000000    0.000000    54     0.1915
  2. axis:    yes   -0.000000   11.467000    0.000000    60     0.1911
  3. axis:    no     0.000000    0.000000   23.497201   125     0.1880

  Lengths:  10.341746  11.467000  23.497201
  Angles:   90.000000  90.000000  90.000000

Effective grid spacing dv^(1/3) = 0.1902

                     log10-error:    total        iterations:
           time      wfs    density  energy       fermi  poisson
iter:   1  21:41:04  -2.40   +inf  -955.886026    3             
iter:   2  21:41:58  -3.28  -3.08  -955.870993    2             
iter:   3  21:42:53  -2.53  -3.11  -955.837565    3             
iter:   4  21:43:47  -4.02  -3.24  -955.820336    2             
iter:   5  21:44:41  -4.90  -3.33  -955.821807    1             
iter:   6  21:45:36  -3.94  -3.31  -955.815205    2             
iter:   7  21:46:30  -4.13  -3.50  -955.814174    2             
iter:   8  21:47:24  -4.14  -3.63  -955.814369    2             
iter:   9  21:48:19  -4.28  -3.68  -955.812589    1             
iter:  10  21:49:13  -5.08  -3.93  -955.812676    2             
iter:  11  21:50:07  -5.08  -3.95  -955.812616    2             
iter:  12  21:51:02  -5.14  -4.13  -955.812214    2             
iter:  13  21:51:56  -6.11  -4.28  -955.812213    1             
iter:  14  21:52:50  -5.77  -4.33  -955.812249    1             
iter:  15  21:53:45  -5.80  -4.44  -955.812232    1             
iter:  16  21:54:39  -7.09  -4.70  -955.812216    1             
iter:  17  21:55:33  -6.13  -4.81  -955.812219    1             
iter:  18  21:56:28  -6.30  -4.86  -955.812216    1             
iter:  19  21:57:22  -7.39  -5.04  -955.812208    1             
iter:  20  21:58:16  -7.04  -5.16  -955.812209    1             
iter:  21  21:59:11  -7.46  -5.19  -955.812208    1             

Converged after 21 iterations.

Dipole moment: (-16.880824, 0.948129, -1.487754) |e|*Ang

Energy contributions relative to reference atoms: (reference = -1044851.132452)

Kinetic:       +689.207377
Potential:     -877.993446
External:        +0.000000
XC:            -774.698140
Entropy (-ST):   -0.000525
Local:           +7.672263
--------------------------
Free energy:   -955.812470
Extrapolated:  -955.812208

Fermi level: -0.76996

Showing only first 2 kpts
 Kpt  Band  Eigenvalues  Occupancy
  0   458     -1.83643    0.22222
  0   459     -1.82940    0.22222
  0   460      0.07575    0.00005
  0   461      0.22536    0.00001

  1   458     -1.84999    0.44444
  1   459     -1.81943    0.44443
  1   460      0.26683    0.00001
  1   461      0.36323    0.00001



Forces in eV/Ang:
  0 O    -1.87917    0.00644    1.57565
  1 O    -1.92866    0.00108    1.55387
  2 Ti    3.83811    0.00000    1.93220
  3 Ti    3.80681   -0.02527    1.92167
  4 Ti   -1.89876   -0.02569   -1.92418
  5 Ti   -1.86440   -0.00098   -2.03614
  6 O     0.89948    0.03689   -0.19480
  7 O     0.85784    0.05599   -0.19931
  8 O    -0.61880    0.00470   -0.56739
  9 O    -0.66998    0.01005   -0.59545
 10 O    -0.28013    0.02638   -0.85867
 11 O    -0.23728    0.09893   -0.90526
 12 O    -0.06338    0.00124    0.07053
 13 O    -0.15370    0.00049    0.01585
 14 Ti    0.07755   -0.03515   -0.08743
 15 Ti   -0.09356    0.02950   -0.07045
 16 Ti    0.02400   -0.01304   -0.19547
 17 Ti    0.07484    0.01490    0.06727
 18 O     0.08483    0.04497   -0.04214
 19 O     0.17699   -0.06601   -0.07232
 20 O     0.14048   -0.01081    0.19531
 21 O    -0.00227    0.01027    0.07000
 22 O     0.03283    0.00975    0.06179
 23 O    -0.01317   -0.01664    0.09651
 24 O    -0.05527   -0.03794    0.04040
 25 O    -0.15415   -0.01803    0.02213
 26 Ti    0.09127   -0.06561   -0.11694
 27 Ti   -0.18569    0.15498    0.05604
 28 Ti   -0.34692   -0.01474   -0.97407
 29 Ti    0.10733   -0.02244    0.03670
 30 O     0.02732    0.31670    0.33927
 31 O     0.12788   -0.03870   -0.14095
 32 O     0.26558   -0.03022    0.16894
 33 O     0.05591   -0.01580    0.01153
 34 O    -0.14074   -0.00490    0.16123
 35 O    -0.22980    0.03538    0.25289
 36 O    -1.90741    0.00050    1.53334
 37 O    -1.95587    0.00461    1.59655
 38 Ti    3.62074   -0.04338    1.70797
 39 Ti    3.89440    0.00108    1.93360
 40 Ti   -1.87752    0.01159   -1.63389
 41 Ti   -1.48346   -0.02540   -1.68839
 42 O     0.95129   -0.01528   -0.21570
 43 O     0.82052   -0.00600   -0.19443
 44 O    -0.75052   -0.02981   -0.77100
 45 O    -0.70811    0.00733   -0.74055
 46 O    -0.32385   -0.00618   -0.87273
 47 O    -0.19233   -0.00013   -0.90419
 48 O    -0.00874   -0.00752    0.05030
 49 O    -0.07695   -0.00359   -0.00022
 50 Ti    0.03072    0.02406    0.04742
 51 Ti   -0.11865    0.01458   -0.00443
 52 Ti    0.01155    0.06663    0.00430
 53 Ti   -0.05504    0.01497    0.13341
 54 O     0.14915   -0.06980   -0.03228
 55 O     0.18854    0.00454   -0.05824
 56 O    -0.00050   -0.01037    0.12288
 57 O    -0.01418   -0.03947   -0.05793
 58 O     0.07691   -0.03202    0.06539
 59 O     0.02191    0.02908    0.12008
 60 O     0.08965    0.00341    0.06697
 61 O    -0.05040   -0.01993   -0.29157
 62 Ti    0.19607   -0.15912    0.25456
 63 Ti   -0.08831   -0.10776    0.01338
 64 Ti   -0.00506    0.09855    0.03771
 65 Ti   -0.21819    0.03766    0.41331
 66 O    -0.02615   -0.29413    0.55918
 67 O     0.08190   -0.03378   -0.05142
 68 O    -0.04549    0.03292    0.10099
 69 O     0.14041    0.00121   -0.14093
 70 O     0.00572   -0.06296    0.20360
 71 O    -0.21096    0.11378   -0.02792
 72 O    -1.89359   -0.00034    1.55923
 73 O    -1.97924   -0.00630    1.60583
 74 Ti    3.57547    0.04831    1.67975
 75 Ti    3.87240    0.01791    1.96084
 76 Ti   -2.00043    0.01489   -2.05902
 77 Ti   -1.53754    0.02175   -2.04014
 78 O     0.96581    0.00811   -0.21521
 79 O     0.84126   -0.05351   -0.17589
 80 O    -0.66186   -0.01765   -0.60310
 81 O    -0.70065   -0.00593   -0.62571
 82 O    -0.33217   -0.02024   -0.87488
 83 O    -0.21962   -0.10007   -0.85218
 84 O    -0.14945    0.00347    0.01831
 85 O    -0.14395   -0.00611    0.02676
 86 Ti    0.10757   -0.02773   -0.02928
 87 Ti    0.05109   -0.09036   -0.11368
 88 Ti    0.04928   -0.03802    0.08203
 89 Ti   -0.05698    0.08062    0.17426
 90 O     0.06611   -0.00221   -0.07330
 91 O     0.10078   -0.04005   -0.07897
 92 O     0.01995   -0.00150    0.08365
 93 O     0.02737    0.00995   -0.08390
 94 O     0.06878    0.02621    0.03909
 95 O     0.01676    0.03016    0.03451
 96 O     0.01825    0.02372   -0.03386
 97 O    -0.07708    0.01467    0.00674
 98 Ti    0.18075   -0.14792    0.10076
 99 Ti   -0.02782   -0.06701   -0.08097
100 Ti    0.09119   -0.05749    0.04389
101 Ti    0.01111   -0.00513    0.10018
102 O    -0.06656   -0.04313    0.22590
103 O     0.01148    0.03239    0.14868
104 O     0.05154    0.00157    0.00226
105 O    -0.08089    0.12032   -0.28755
106 O    -0.14331    0.06893    0.14883
107 O    -0.14039    0.08617    0.18799
108 V    -0.00079   -0.12340    0.03447
109 V     0.11850    0.43855   -0.33252
110 O     0.12440   -0.22095    0.37824
111 O     0.08819    0.03808    0.02694
112 O    -0.06862    0.01120    0.13313
113 O    -0.04749    0.09306    0.02935
114 O    -0.23353   -0.15207   -0.22261

System changes: positions 

Initializing position-dependent things.

Density initialized from wave functions
                                                
                                                
                                                
                                                
                                                
                                                
                      O                         
                                                
              O     O V O       Ti              
                  Oi O   O      O    O          
                       OV   OO      Ti          
           O   Ti O     O    Ti   O             
                      Oi   O O                  
         O     O    O      Ti     Ti            
             Tii   OOi     OO   O               
              O   O     O Ti   TiOi             
          O Ti   TiO      O    O     O          
            O   O      OTi    TiO               
                TiO      O  O  O   O Ti         
         Ti   O O    O Oi    Ti     O           
         O     Ti    Ti    OTi  O Ti            
             OTi    O O   O                     
                  O Ti     Oi     O             
             Oi     O    O      Ti              
           O     OTi    Ti     O                
          Ti          O      O                  
               O                                
                                                
                                                
                                                
                                                

Positions:
   0 O      8.476572    1.911173    6.000000    ( 0.0000,  0.0000,  0.0000)
   1 O      3.305699    0.000000    6.000000    ( 0.0000,  0.0000,  0.0000)
   2 Ti     1.412752    0.000000    6.752957    ( 0.0000,  0.0000,  0.0000)
   3 Ti     6.583625    1.911173    6.752957    ( 0.0000,  0.0000,  0.0000)
   4 Ti     9.522250    1.911173    7.640878    ( 0.0000,  0.0000,  0.0000)
   5 Ti     4.351376    0.000000    7.640878    ( 0.0000,  0.0000,  0.0000)
   6 O      9.861551    0.000000    7.505914    ( 0.0000,  0.0000,  0.0000)
   7 O      4.690678    1.911173    7.505914    ( 0.0000,  0.0000,  0.0000)
   8 O      7.629303    1.911173    8.393834    ( 0.0000,  0.0000,  0.0000)
   9 O      2.458430    0.000000    8.393834    ( 0.0000,  0.0000,  0.0000)
  10 O      6.244323    0.000000    6.887921    ( 0.0000,  0.0000,  0.0000)
  11 O      1.073450    1.911173    6.887921    ( 0.0000,  0.0000,  0.0000)
  12 O      9.808652    1.918741    9.597027    ( 0.0000,  0.0000,  0.0000)
  13 O      4.633425    0.005846    9.580480    ( 0.0000,  0.0000,  0.0000)
  14 Ti     2.759239    0.019720   10.379956    ( 0.0000,  0.0000,  0.0000)
  15 Ti     7.961110    1.902981   10.370864    ( 0.0000,  0.0000,  0.0000)
  16 Ti     0.503283    1.932563   11.171531    ( 0.0000,  0.0000,  0.0000)
  17 Ti     5.656817   -0.007843   11.132747    ( 0.0000,  0.0000,  0.0000)
  18 O      0.916288    0.010379   11.073547    ( 0.0000,  0.0000,  0.0000)
  19 O      6.094003    1.908894   11.087474    ( 0.0000,  0.0000,  0.0000)
  20 O      9.047943    1.907176   11.965370    ( 0.0000,  0.0000,  0.0000)
  21 O      3.869257   11.466352   11.947271    ( 0.0000,  0.0000,  0.0000)
  22 O      7.568064    0.006074   10.449775    ( 0.0000,  0.0000,  0.0000)
  23 O      2.389859    1.922170   10.452207    ( 0.0000,  0.0000,  0.0000)
  24 O      0.963363    1.876583   13.130793    ( 0.0000,  0.0000,  0.0000)
  25 O      6.121605   11.455601   13.071940    ( 0.0000,  0.0000,  0.0000)
  26 Ti     4.232340    0.060689   14.008528    ( 0.0000,  0.0000,  0.0000)
  27 Ti     9.417947    1.829255   14.008851    ( 0.0000,  0.0000,  0.0000)
  28 Ti     1.873160    1.918494   14.654952    ( 0.0000,  0.0000,  0.0000)
  29 Ti     7.023652   11.438884   14.608185    ( 0.0000,  0.0000,  0.0000)
  30 O      2.396510   11.457326   14.798500    ( 0.0000,  0.0000,  0.0000)
  31 O      7.581336    1.833019   14.768687    ( 0.0000,  0.0000,  0.0000)
  32 O      0.229403    1.883511   15.476177    ( 0.0000,  0.0000,  0.0000)
  33 O      5.406601    0.015813   15.453517    ( 0.0000,  0.0000,  0.0000)
  34 O      9.040002   11.426517   13.965832    ( 0.0000,  0.0000,  0.0000)
  35 O      3.834433    1.901477   13.980004    ( 0.0000,  0.0000,  0.0000)
  36 O      8.476572    5.733518    6.000000    ( 0.0000,  0.0000,  0.0000)
  37 O      3.305699    3.822345    6.000000    ( 0.0000,  0.0000,  0.0000)
  38 Ti     1.412752    3.822345    6.752957    ( 0.0000,  0.0000,  0.0000)
  39 Ti     6.583625    5.733518    6.752957    ( 0.0000,  0.0000,  0.0000)
  40 Ti     9.522250    5.733518    7.640878    ( 0.0000,  0.0000,  0.0000)
  41 Ti     4.351376    3.822345    7.640878    ( 0.0000,  0.0000,  0.0000)
  42 O      9.861551    3.822345    7.505914    ( 0.0000,  0.0000,  0.0000)
  43 O      4.690678    5.733518    7.505914    ( 0.0000,  0.0000,  0.0000)
  44 O      7.629303    5.733518    8.393834    ( 0.0000,  0.0000,  0.0000)
  45 O      2.458430    3.822345    8.393834    ( 0.0000,  0.0000,  0.0000)
  46 O      6.244323    3.822345    6.887921    ( 0.0000,  0.0000,  0.0000)
  47 O      1.073450    5.733518    6.887921    ( 0.0000,  0.0000,  0.0000)
  48 O      9.801829    5.737817    9.601877    ( 0.0000,  0.0000,  0.0000)
  49 O      4.635853    3.821523    9.609610    ( 0.0000,  0.0000,  0.0000)
  50 Ti     2.789346    3.830996   10.314707    ( 0.0000,  0.0000,  0.0000)
  51 Ti     8.018496    5.718763   10.354492    ( 0.0000,  0.0000,  0.0000)
  52 Ti     0.535329    5.712989   11.273644    ( 0.0000,  0.0000,  0.0000)
  53 Ti     5.733316    3.807760   11.221046    ( 0.0000,  0.0000,  0.0000)
  54 O      0.912213    3.819006   11.091940    ( 0.0000,  0.0000,  0.0000)
  55 O      6.073159    5.721851   11.097321    ( 0.0000,  0.0000,  0.0000)
  56 O      9.027564    5.709604   11.965769    ( 0.0000,  0.0000,  0.0000)
  57 O      3.855883    3.811173   11.943805    ( 0.0000,  0.0000,  0.0000)
  58 O      7.559659    3.818887   10.460107    ( 0.0000,  0.0000,  0.0000)
  59 O      2.386060    5.727872   10.457009    ( 0.0000,  0.0000,  0.0000)
  60 O      0.909533    5.778642   13.135829    ( 0.0000,  0.0000,  0.0000)
  61 O      6.062355    3.811305   13.198185    ( 0.0000,  0.0000,  0.0000)
  62 Ti     4.182430    3.903329   13.820906    ( 0.0000,  0.0000,  0.0000)
  63 Ti     9.469105    5.749197   13.992149    ( 0.0000,  0.0000,  0.0000)
  64 Ti     1.945408    5.719853   14.943786    ( 0.0000,  0.0000,  0.0000)
  65 Ti     7.236853    3.800334   14.797744    ( 0.0000,  0.0000,  0.0000)
  66 O      2.335390    3.814736   14.655910    ( 0.0000,  0.0000,  0.0000)
  67 O      7.546620    5.762383   14.788601    ( 0.0000,  0.0000,  0.0000)
  68 O      0.202372    5.704075   15.495024    ( 0.0000,  0.0000,  0.0000)
  69 O      5.188465    3.842981   15.543289    ( 0.0000,  0.0000,  0.0000)
  70 O      8.982216    3.807242   14.005038    ( 0.0000,  0.0000,  0.0000)
  71 O      3.861847    5.740598   13.927482    ( 0.0000,  0.0000,  0.0000)
  72 O      8.476572    9.555862    6.000000    ( 0.0000,  0.0000,  0.0000)
  73 O      3.305699    7.644690    6.000000    ( 0.0000,  0.0000,  0.0000)
  74 Ti     1.412752    7.644690    6.752957    ( 0.0000,  0.0000,  0.0000)
  75 Ti     6.583625    9.555862    6.752957    ( 0.0000,  0.0000,  0.0000)
  76 Ti     9.522250    9.555862    7.640878    ( 0.0000,  0.0000,  0.0000)
  77 Ti     4.351376    7.644690    7.640878    ( 0.0000,  0.0000,  0.0000)
  78 O      9.861551    7.644690    7.505914    ( 0.0000,  0.0000,  0.0000)
  79 O      4.690678    9.555862    7.505914    ( 0.0000,  0.0000,  0.0000)
  80 O      7.629303    9.555862    8.393834    ( 0.0000,  0.0000,  0.0000)
  81 O      2.458430    7.644690    8.393834    ( 0.0000,  0.0000,  0.0000)
  82 O      6.244323    7.644690    6.887921    ( 0.0000,  0.0000,  0.0000)
  83 O      1.073450    9.555862    6.887921    ( 0.0000,  0.0000,  0.0000)
  84 O      9.801980    9.566177    9.579220    ( 0.0000,  0.0000,  0.0000)
  85 O      4.633635    7.638122    9.583472    ( 0.0000,  0.0000,  0.0000)
  86 Ti     2.713613    7.650313   10.328096    ( 0.0000,  0.0000,  0.0000)
  87 Ti     7.925946    9.579115   10.391414    ( 0.0000,  0.0000,  0.0000)
  88 Ti     0.488716    9.566299   11.118291    ( 0.0000,  0.0000,  0.0000)
  89 Ti     5.723587    7.589401   11.087355    ( 0.0000,  0.0000,  0.0000)
  90 O      0.916760    7.651140   11.073213    ( 0.0000,  0.0000,  0.0000)
  91 O      6.092584    9.555490   11.074076    ( 0.0000,  0.0000,  0.0000)
  92 O      9.025984    9.536213   11.945953    ( 0.0000,  0.0000,  0.0000)
  93 O      3.845654    7.651387   11.928874    ( 0.0000,  0.0000,  0.0000)
  94 O      7.554737    7.628402   10.448067    ( 0.0000,  0.0000,  0.0000)
  95 O      2.382391    9.558601   10.446191    ( 0.0000,  0.0000,  0.0000)
  96 O      0.906346    9.600595   13.065572    ( 0.0000,  0.0000,  0.0000)
  97 O      6.078978    7.670591   13.107071    ( 0.0000,  0.0000,  0.0000)
  98 Ti     4.107098    7.695910   13.784816    ( 0.0000,  0.0000,  0.0000)
  99 Ti     9.393145    9.535706   14.021705    ( 0.0000,  0.0000,  0.0000)
 100 Ti     1.855942    9.575412   14.571643    ( 0.0000,  0.0000,  0.0000)
 101 Ti     7.047610    7.601247   14.595823    ( 0.0000,  0.0000,  0.0000)
 102 O      2.358592    7.697550   14.607257    ( 0.0000,  0.0000,  0.0000)
 103 O      7.553285    9.523592   14.827946    ( 0.0000,  0.0000,  0.0000)
 104 O      0.241544    9.512216   15.448193    ( 0.0000,  0.0000,  0.0000)
 105 O      5.367870    7.467581   15.591402    ( 0.0000,  0.0000,  0.0000)
 106 O      8.970560    7.633087   13.969761    ( 0.0000,  0.0000,  0.0000)
 107 O      3.883584    9.561659   13.966775    ( 0.0000,  0.0000,  0.0000)
 108 V      4.413639    6.725809   17.036499    ( 0.0000,  0.0000,  0.0000)
 109 V      5.779533    3.866712   17.211242    ( 0.0000,  0.0000,  0.0000)
 110 O      5.160699    2.660903   18.046870    ( 0.0000,  0.0000,  0.0000)
 111 O      2.903348    5.948573   16.543266    ( 0.0000,  0.0000,  0.0000)
 112 O      5.403269    5.528387   17.869496    ( 0.0000,  0.0000,  0.0000)
 113 O      4.081805    7.899414   18.054015    ( 0.0000,  0.0000,  0.0000)
 114 O      7.459456    3.735499   16.711900    ( 0.0000,  0.0000,  0.0000)

Unit cell:
           periodic     x           y           z      points  spacing
  1. axis:    yes   10.341746    0.000000    0.000000    54     0.1915
  2. axis:    yes   -0.000000   11.467000    0.000000    60     0.1911
  3. axis:    no     0.000000    0.000000   23.497201   125     0.1880

  Lengths:  10.341746  11.467000  23.497201
  Angles:   90.000000  90.000000  90.000000

Effective grid spacing dv^(1/3) = 0.1902

                     log10-error:    total        iterations:
           time      wfs    density  energy       fermi  poisson
iter:   1  22:00:25  -2.66   +inf  -955.911130    2             
iter:   2  22:01:20  -3.60  -3.14  -955.910005    2             
iter:   3  22:02:14  -3.34  -3.16  -955.897290    2             
iter:   4  22:03:09  -4.45  -3.37  -955.896334    2             
iter:   5  22:04:03  -4.43  -3.40  -955.896679    2             
iter:   6  22:04:58  -4.31  -3.45  -955.894707    2             
iter:   7  22:05:52  -5.34  -3.75  -955.894159    2             
iter:   8  22:06:47  -5.38  -3.93  -955.894058    2             
iter:   9  22:07:41  -5.55  -4.12  -955.894185    2             
iter:  10  22:08:36  -5.53  -4.08  -955.894028    2             
iter:  11  22:09:30  -6.66  -4.38  -955.894021    1             
iter:  12  22:10:25  -7.10  -4.43  -955.894017    1             
iter:  13  22:11:19  -6.51  -4.45  -955.894023    1             
iter:  14  22:12:14  -7.17  -4.84  -955.894018    1             
iter:  15  22:13:08  -7.86  -4.93  -955.894016    1             

Converged after 15 iterations.

Dipole moment: (-16.978593, -0.079237, -1.465861) |e|*Ang

Energy contributions relative to reference atoms: (reference = -1044851.132452)

Kinetic:       +689.455483
Potential:     -878.247549
External:        +0.000000
XC:            -774.778194
Entropy (-ST):   -0.000511
Local:           +7.676500
--------------------------
Free energy:   -955.894271
Extrapolated:  -955.894016

Fermi level: -0.77023

Showing only first 2 kpts
 Kpt  Band  Eigenvalues  Occupancy
  0   458     -1.84078    0.22222
  0   459     -1.83197    0.22222
  0   460      0.07934    0.00005
  0   461      0.22439    0.00001

  1   458     -1.85093    0.44444
  1   459     -1.82333    0.44443
  1   460      0.27004    0.00001
  1   461      0.36390    0.00001



Forces in eV/Ang:
  0 O    -1.87424    0.00608    1.58220
  1 O    -1.93066    0.00103    1.55137
  2 Ti    3.84278   -0.00090    1.93022
  3 Ti    3.78739   -0.02249    1.91343
  4 Ti   -1.88781   -0.02374   -1.93163
  5 Ti   -1.86405    0.00008   -2.02390
  6 O     0.89600    0.04548   -0.19181
  7 O     0.86628    0.05101   -0.20375
  8 O    -0.61781    0.00414   -0.56641
  9 O    -0.68817    0.01157   -0.62756
 10 O    -0.27582    0.02935   -0.85882
 11 O    -0.24474    0.09284   -0.90412
 12 O    -0.05567    0.00185    0.00156
 13 O    -0.08310   -0.00125    0.03639
 14 Ti    0.07014   -0.02014   -0.01964
 15 Ti   -0.04207    0.02097    0.02003
 16 Ti    0.01050   -0.02311   -0.12027
 17 Ti    0.03066    0.01190    0.05966
 18 O     0.04852    0.00697   -0.03440
 19 O     0.12041   -0.03681   -0.05515
 20 O     0.10582   -0.00586    0.10131
 21 O     0.01774    0.00744    0.00412
 22 O     0.03369   -0.01539    0.05433
 23 O     0.01403   -0.02134    0.07607
 24 O    -0.37430   -0.03661   -0.68672
 25 O    -0.06905   -0.02369    0.03925
 26 Ti   -0.12036    0.04863    0.01633
 27 Ti    0.02682    0.10382    0.26701
 28 Ti    0.07089   -0.08056   -0.14750
 29 Ti    0.01368   -0.05232    0.01020
 30 O     0.07123   -0.02294    0.20490
 31 O     0.00747    0.05404   -0.07720
 32 O    -0.06928   -0.02860   -0.04234
 33 O     0.14888   -0.01326    0.00633
 34 O    -0.13336   -0.04792    0.13904
 35 O    -0.01252    0.07279    0.12698
 36 O    -1.90733    0.00011    1.53436
 37 O    -1.95725    0.00417    1.59023
 38 Ti    3.63937   -0.03878    1.71918
 39 Ti    3.88438    0.00136    1.92927
 40 Ti   -1.86569    0.01429   -1.61188
 41 Ti   -1.49805   -0.02384   -1.66266
 42 O     0.94383   -0.02346   -0.21155
 43 O     0.82661   -0.00252   -0.19752
 44 O    -0.74899   -0.02964   -0.76277
 45 O    -0.72049    0.00835   -0.76873
 46 O    -0.31610   -0.01030   -0.87985
 47 O    -0.19717    0.00204   -0.90580
 48 O    -0.01673   -0.00774    0.03187
 49 O    -0.02805   -0.00277   -0.01849
 50 Ti    0.02948    0.00242    0.07702
 51 Ti   -0.05737   -0.00398    0.02805
 52 Ti    0.01515    0.03409    0.05958
 53 Ti   -0.08055    0.00635    0.07923
 54 O     0.10287   -0.01639   -0.01272
 55 O     0.15103    0.03264   -0.04456
 56 O    -0.00221   -0.00573    0.08140
 57 O     0.02290   -0.02698    0.03679
 58 O     0.06981   -0.01961    0.06074
 59 O     0.02711    0.03498    0.10613
 60 O     0.03275   -0.00027    0.03482
 61 O     0.00053   -0.01507   -0.13582
 62 Ti   -0.12730   -0.26415    0.10672
 63 Ti    0.04710   -0.11952    0.03497
 64 Ti   -0.11094   -0.11362   -0.03638
 65 Ti   -0.04627   -0.00799    0.07130
 66 O     0.10412    0.09932    0.41146
 67 O     0.00772   -0.06636   -0.00545
 68 O    -0.04848    0.04784    0.03204
 69 O     0.21175    0.01540    0.03481
 70 O    -0.08816    0.00272    0.27105
 71 O    -0.16729    0.05103   -0.01790
 72 O    -1.89709    0.00039    1.55749
 73 O    -1.97812   -0.00583    1.60269
 74 Ti    3.58236    0.04446    1.68552
 75 Ti    3.86622    0.01480    1.95401
 76 Ti   -1.98688    0.01054   -2.04516
 77 Ti   -1.54625    0.01917   -2.03206
 78 O     0.96208    0.00766   -0.21495
 79 O     0.84570   -0.05224   -0.17756
 80 O    -0.67966   -0.01735   -0.62139
 81 O    -0.71306   -0.00668   -0.65688
 82 O    -0.32795   -0.01910   -0.87502
 83 O    -0.22238   -0.09609   -0.85138
 84 O    -0.10151    0.00206    0.02782
 85 O    -0.06430   -0.00870    0.05312
 86 Ti    0.08347   -0.02040   -0.03416
 87 Ti    0.08515   -0.06371   -0.06892
 88 Ti    0.05012   -0.00304    0.09193
 89 Ti   -0.05963    0.07816    0.07895
 90 O     0.03019    0.00647   -0.05491
 91 O     0.05173   -0.04369   -0.05860
 92 O     0.00921   -0.00884    0.04463
 93 O     0.07027    0.01661    0.02032
 94 O     0.04173    0.01332    0.04763
 95 O     0.01307    0.00671    0.02983
 96 O     0.01372    0.00734   -0.04835
 97 O    -0.04117    0.01253    0.03096
 98 Ti    0.05619   -0.07281    0.10175
 99 Ti    0.07184    0.02656   -0.00932
100 Ti    0.07225    0.20261    0.09195
101 Ti    0.02919    0.08102    0.03602
102 O     0.02312   -0.02974    0.18725
103 O    -0.02491   -0.02036    0.13614
104 O     0.01271   -0.01730   -0.05644
105 O    -0.13071    0.03026   -0.12446
106 O    -0.13695    0.00340    0.13582
107 O    -0.11828   -0.05063    0.15444
108 V    -0.13219    0.11066   -0.11427
109 V    -0.00638    0.36743   -0.20133
110 O     0.15167   -0.12798    0.28650
111 O     0.18568    0.06018    0.13405
112 O     0.04501   -0.14798    0.15582
113 O    -0.02723    0.03018    0.00052
114 O    -0.18216   -0.12498   -0.05811

System changes: positions 

Initializing position-dependent things.

Density initialized from wave functions
                                                
                                                
                                                
                                                
                                                
                                                
                      O                         
                                                
              O     O V O       Ti              
                  Oi O   O      O    O          
                       OV   OO      Ti          
           O   Ti O     O    Ti   O             
                      Oi   O O                  
         O     O    O      Ti     Ti            
             Tii   OOi     OO   O               
              O   O     O Ti   TiOi             
          O Ti   TiO      O    O     O          
            O   O      OTi    TiO               
                TiO      O  O  O   O Ti         
         Ti   O O    O Oi    Ti     O           
         O     Ti    Ti    OTi  O Ti            
             OTi    O O   O                     
                  O Ti     Oi     O             
             Oi     O    O      Ti              
           O     OTi    Ti     O                
          Ti          O      O                  
               O                                
                                                
                                                
                                                
                                                

Positions:
   0 O      8.476572    1.911173    6.000000    ( 0.0000,  0.0000,  0.0000)
   1 O      3.305699    0.000000    6.000000    ( 0.0000,  0.0000,  0.0000)
   2 Ti     1.412752    0.000000    6.752957    ( 0.0000,  0.0000,  0.0000)
   3 Ti     6.583625    1.911173    6.752957    ( 0.0000,  0.0000,  0.0000)
   4 Ti     9.522250    1.911173    7.640878    ( 0.0000,  0.0000,  0.0000)
   5 Ti     4.351376    0.000000    7.640878    ( 0.0000,  0.0000,  0.0000)
   6 O      9.861551    0.000000    7.505914    ( 0.0000,  0.0000,  0.0000)
   7 O      4.690678    1.911173    7.505914    ( 0.0000,  0.0000,  0.0000)
   8 O      7.629303    1.911173    8.393834    ( 0.0000,  0.0000,  0.0000)
   9 O      2.458430    0.000000    8.393834    ( 0.0000,  0.0000,  0.0000)
  10 O      6.244323    0.000000    6.887921    ( 0.0000,  0.0000,  0.0000)
  11 O      1.073450    1.911173    6.887921    ( 0.0000,  0.0000,  0.0000)
  12 O      9.806617    1.918795    9.598284    ( 0.0000,  0.0000,  0.0000)
  13 O      4.629429    0.005838    9.581408    ( 0.0000,  0.0000,  0.0000)
  14 Ti     2.761552    0.018760   10.377871    ( 0.0000,  0.0000,  0.0000)
  15 Ti     7.958963    1.903807   10.369882    ( 0.0000,  0.0000,  0.0000)
  16 Ti     0.503675    1.931920   11.165795    ( 0.0000,  0.0000,  0.0000)
  17 Ti     5.658827   -0.007483   11.134757    ( 0.0000,  0.0000,  0.0000)
  18 O      0.918599    0.011215   11.072248    ( 0.0000,  0.0000,  0.0000)
  19 O      6.098913    1.907189   11.085394    ( 0.0000,  0.0000,  0.0000)
  20 O      9.051987    1.906911   11.970454    ( 0.0000,  0.0000,  0.0000)
  21 O      3.869477   11.466687   11.948888    ( 0.0000,  0.0000,  0.0000)
  22 O      7.569122    0.005993   10.451760    ( 0.0000,  0.0000,  0.0000)
  23 O      2.389947    1.921580   10.455127    ( 0.0000,  0.0000,  0.0000)
  24 O      0.956855    1.875349   13.121691    ( 0.0000,  0.0000,  0.0000)
  25 O      6.117608   11.454932   13.072798    ( 0.0000,  0.0000,  0.0000)
  26 Ti     4.232822    0.059658   14.006780    ( 0.0000,  0.0000,  0.0000)
  27 Ti     9.414389    1.833448   14.013291    ( 0.0000,  0.0000,  0.0000)
  28 Ti     1.867852    1.917017   14.635263    ( 0.0000,  0.0000,  0.0000)
  29 Ti     7.025903   11.437617   14.609129    ( 0.0000,  0.0000,  0.0000)
  30 O      2.398012   11.463255   14.807822    ( 0.0000,  0.0000,  0.0000)
  31 O      7.583732    1.833361   14.765013    ( 0.0000,  0.0000,  0.0000)
  32 O      0.233857    1.882571   15.478769    ( 0.0000,  0.0000,  0.0000)
  33 O      5.409524    0.015340   15.453622    ( 0.0000,  0.0000,  0.0000)
  34 O      9.035492   11.425776   13.970936    ( 0.0000,  0.0000,  0.0000)
  35 O      3.829879    1.903550   13.986628    ( 0.0000,  0.0000,  0.0000)
  36 O      8.476572    5.733518    6.000000    ( 0.0000,  0.0000,  0.0000)
  37 O      3.305699    3.822345    6.000000    ( 0.0000,  0.0000,  0.0000)
  38 Ti     1.412752    3.822345    6.752957    ( 0.0000,  0.0000,  0.0000)
  39 Ti     6.583625    5.733518    6.752957    ( 0.0000,  0.0000,  0.0000)
  40 Ti     9.522250    5.733518    7.640878    ( 0.0000,  0.0000,  0.0000)
  41 Ti     4.351376    3.822345    7.640878    ( 0.0000,  0.0000,  0.0000)
  42 O      9.861551    3.822345    7.505914    ( 0.0000,  0.0000,  0.0000)
  43 O      4.690678    5.733518    7.505914    ( 0.0000,  0.0000,  0.0000)
  44 O      7.629303    5.733518    8.393834    ( 0.0000,  0.0000,  0.0000)
  45 O      2.458430    3.822345    8.393834    ( 0.0000,  0.0000,  0.0000)
  46 O      6.244323    3.822345    6.887921    ( 0.0000,  0.0000,  0.0000)
  47 O      1.073450    5.733518    6.887921    ( 0.0000,  0.0000,  0.0000)
  48 O      9.801464    5.737561    9.603379    ( 0.0000,  0.0000,  0.0000)
  49 O      4.634074    3.821415    9.609475    ( 0.0000,  0.0000,  0.0000)
  50 Ti     2.790201    3.831445   10.316451    ( 0.0000,  0.0000,  0.0000)
  51 Ti     8.015478    5.718970   10.354703    ( 0.0000,  0.0000,  0.0000)
  52 Ti     0.535688    5.714703   11.274288    ( 0.0000,  0.0000,  0.0000)
  53 Ti     5.731293    3.808188   11.224426    ( 0.0000,  0.0000,  0.0000)
  54 O      0.916521    3.817654   11.091185    ( 0.0000,  0.0000,  0.0000)
  55 O      6.078831    5.722319   11.095634    ( 0.0000,  0.0000,  0.0000)
  56 O      9.027596    5.709318   11.969402    ( 0.0000,  0.0000,  0.0000)
  57 O      3.855978    3.810022   11.943701    ( 0.0000,  0.0000,  0.0000)
  58 O      7.562032    3.818039   10.462289    ( 0.0000,  0.0000,  0.0000)
  59 O      2.386893    5.728891   10.460862    ( 0.0000,  0.0000,  0.0000)
  60 O      0.911765    5.778656   13.137851    ( 0.0000,  0.0000,  0.0000)
  61 O      6.061292    3.810697   13.191167    ( 0.0000,  0.0000,  0.0000)
  62 Ti     4.184247    3.896837   13.826738    ( 0.0000,  0.0000,  0.0000)
  63 Ti     9.467993    5.745571   13.992734    ( 0.0000,  0.0000,  0.0000)
  64 Ti     1.943680    5.720398   14.943984    ( 0.0000,  0.0000,  0.0000)
  65 Ti     7.232501    3.800682   14.805485    ( 0.0000,  0.0000,  0.0000)
  66 O      2.336441    3.810418   14.672318    ( 0.0000,  0.0000,  0.0000)
  67 O      7.548145    5.760633   14.787698    ( 0.0000,  0.0000,  0.0000)
  68 O      0.200873    5.705362   15.497497    ( 0.0000,  0.0000,  0.0000)
  69 O      5.193627    3.843515   15.539208    ( 0.0000,  0.0000,  0.0000)
  70 O      8.981049    3.806193   14.013020    ( 0.0000,  0.0000,  0.0000)
  71 O      3.855520    5.742983   13.926747    ( 0.0000,  0.0000,  0.0000)
  72 O      8.476572    9.555862    6.000000    ( 0.0000,  0.0000,  0.0000)
  73 O      3.305699    7.644690    6.000000    ( 0.0000,  0.0000,  0.0000)
  74 Ti     1.412752    7.644690    6.752957    ( 0.0000,  0.0000,  0.0000)
  75 Ti     6.583625    9.555862    6.752957    ( 0.0000,  0.0000,  0.0000)
  76 Ti     9.522250    9.555862    7.640878    ( 0.0000,  0.0000,  0.0000)
  77 Ti     4.351376    7.644690    7.640878    ( 0.0000,  0.0000,  0.0000)
  78 O      9.861551    7.644690    7.505914    ( 0.0000,  0.0000,  0.0000)
  79 O      4.690678    9.555862    7.505914    ( 0.0000,  0.0000,  0.0000)
  80 O      7.629303    9.555862    8.393834    ( 0.0000,  0.0000,  0.0000)
  81 O      2.458430    7.644690    8.393834    ( 0.0000,  0.0000,  0.0000)
  82 O      6.244323    7.644690    6.887921    ( 0.0000,  0.0000,  0.0000)
  83 O      1.073450    9.555862    6.887921    ( 0.0000,  0.0000,  0.0000)
  84 O      9.797784    9.566267    9.580052    ( 0.0000,  0.0000,  0.0000)
  85 O      4.630049    7.637873    9.584774    ( 0.0000,  0.0000,  0.0000)
  86 Ti     2.716841    7.649534   10.326967    ( 0.0000,  0.0000,  0.0000)
  87 Ti     7.928206    9.576518   10.388241    ( 0.0000,  0.0000,  0.0000)
  88 Ti     0.490299    9.565620   11.121021    ( 0.0000,  0.0000,  0.0000)
  89 Ti     5.721691    7.592117   11.091651    ( 0.0000,  0.0000,  0.0000)
  90 O      0.918392    7.651141   11.071091    ( 0.0000,  0.0000,  0.0000)
  91 O      6.095120    9.554150   11.071790    ( 0.0000,  0.0000,  0.0000)
  92 O      9.026514    9.536034   11.948221    ( 0.0000,  0.0000,  0.0000)
  93 O      3.847224    7.651819   11.927729    ( 0.0000,  0.0000,  0.0000)
  94 O      7.556623    7.629066   10.449528    ( 0.0000,  0.0000,  0.0000)
  95 O      2.382929    9.559249   10.447293    ( 0.0000,  0.0000,  0.0000)
  96 O      0.907053    9.601175   13.064509    ( 0.0000,  0.0000,  0.0000)
  97 O      6.077015    7.671045   13.107781    ( 0.0000,  0.0000,  0.0000)
  98 Ti     4.111164    7.692110   13.788132    ( 0.0000,  0.0000,  0.0000)
  99 Ti     9.393585    9.534936   14.019975    ( 0.0000,  0.0000,  0.0000)
 100 Ti     1.858506    9.576872   14.573667    ( 0.0000,  0.0000,  0.0000)
 101 Ti     7.048330    7.602580   14.598084    ( 0.0000,  0.0000,  0.0000)
 102 O      2.357652    7.696350   14.614289    ( 0.0000,  0.0000,  0.0000)
 103 O      7.553094    9.523776   14.832719    ( 0.0000,  0.0000,  0.0000)
 104 O      0.242807    9.512005   15.447472    ( 0.0000,  0.0000,  0.0000)
 105 O      5.364450    7.470191   15.584170    ( 0.0000,  0.0000,  0.0000)
 106 O      8.965889    7.634241   13.974572    ( 0.0000,  0.0000,  0.0000)
 107 O      3.879231    9.562723   13.972582    ( 0.0000,  0.0000,  0.0000)
 108 V      4.411559    6.726852   17.037221    ( 0.0000,  0.0000,  0.0000)
 109 V      5.776383    3.870984   17.210520    ( 0.0000,  0.0000,  0.0000)
 110 O      5.169189    2.662579   18.052676    ( 0.0000,  0.0000,  0.0000)
 111 O      2.907402    5.949939   16.545536    ( 0.0000,  0.0000,  0.0000)
 112 O      5.402607    5.527528   17.874075    ( 0.0000,  0.0000,  0.0000)
 113 O      4.080862    7.900201   18.053298    ( 0.0000,  0.0000,  0.0000)
 114 O      7.454143    3.731173   16.706506    ( 0.0000,  0.0000,  0.0000)

Unit cell:
           periodic     x           y           z      points  spacing
  1. axis:    yes   10.341746    0.000000    0.000000    54     0.1915
  2. axis:    yes   -0.000000   11.467000    0.000000    60     0.1911
  3. axis:    no     0.000000    0.000000   23.497201   125     0.1880

  Lengths:  10.341746  11.467000  23.497201
  Angles:   90.000000  90.000000  90.000000

Effective grid spacing dv^(1/3) = 0.1902

                     log10-error:    total        iterations:
           time      wfs    density  energy       fermi  poisson
iter:   1  22:14:23  -2.91   +inf  -955.948206    2             
iter:   2  22:15:17  -3.81  -3.27  -955.948390    2             
iter:   3  22:16:11  -3.68  -3.29  -955.942941    2             
iter:   4  22:17:06  -4.59  -3.51  -955.942757    2             
iter:   5  22:18:00  -4.69  -3.53  -955.942577    2             
iter:   6  22:18:55  -4.70  -3.60  -955.941993    2             
iter:   7  22:19:49  -5.61  -3.88  -955.941740    2             
iter:   8  22:20:43  -5.44  -4.04  -955.941735    2             
iter:   9  22:21:38  -5.73  -4.22  -955.941766    2             
iter:  10  22:22:32  -6.01  -4.22  -955.941694    2             
iter:  11  22:23:27  -6.89  -4.50  -955.941694    1             
iter:  12  22:24:21  -6.95  -4.56  -955.941694    1             
iter:  13  22:25:15  -6.89  -4.62  -955.941695    1             
iter:  14  22:26:10  -7.89  -4.99  -955.941693    1             

Converged after 14 iterations.

Dipole moment: (-17.070812, -0.432157, -1.449370) |e|*Ang

Energy contributions relative to reference atoms: (reference = -1044851.132452)

Kinetic:       +689.682761
Potential:     -878.469673
External:        +0.000000
XC:            -774.837605
Entropy (-ST):   -0.000506
Local:           +7.683077
--------------------------
Free energy:   -955.941946
Extrapolated:  -955.941693

Fermi level: -0.76696

Showing only first 2 kpts
 Kpt  Band  Eigenvalues  Occupancy
  0   458     -1.83876    0.22222
  0   459     -1.82960    0.22222
  0   460      0.08404    0.00004
  0   461      0.22786    0.00001

  1   458     -1.84832    0.44444
  1   459     -1.82121    0.44443
  1   460      0.27471    0.00001
  1   461      0.36816    0.00001



Forces in eV/Ang:
  0 O    -1.87294    0.00563    1.58457
  1 O    -1.92917    0.00044    1.55168
  2 Ti    3.84240    0.00167    1.93047
  3 Ti    3.78175   -0.01905    1.91238
  4 Ti   -1.88524   -0.02119   -1.92689
  5 Ti   -1.86451    0.00427   -2.01789
  6 O     0.89574    0.04672   -0.19091
  7 O     0.86972    0.04522   -0.20452
  8 O    -0.62419    0.00342   -0.57356
  9 O    -0.70037    0.01222   -0.64974
 10 O    -0.27502    0.02720   -0.85818
 11 O    -0.24718    0.08718   -0.89828
 12 O    -0.06279    0.00168   -0.06883
 13 O    -0.02009   -0.00285    0.05294
 14 Ti    0.03345   -0.00740    0.00550
 15 Ti    0.02601    0.01185    0.09330
 16 Ti   -0.01921   -0.03128   -0.08535
 17 Ti    0.03174   -0.00429    0.02789
 18 O     0.02576   -0.04477   -0.03745
 19 O     0.04841   -0.01097   -0.02910
 20 O     0.02969   -0.00034    0.01415
 21 O     0.02787    0.01088    0.01832
 22 O     0.02443   -0.03882    0.05397
 23 O     0.05712   -0.01669    0.05210
 24 O    -0.37187   -0.02786   -0.68906
 25 O    -0.03378   -0.02598    0.04618
 26 Ti   -0.12681    0.01874    0.08653
 27 Ti    0.06979    0.04522    0.23311
 28 Ti    0.16249   -0.08571    0.17495
 29 Ti   -0.00657   -0.05878   -0.02365
 30 O     0.07461   -0.12308    0.12487
 31 O    -0.07255    0.07342   -0.03407
 32 O    -0.11831   -0.02415   -0.15782
 33 O     0.11409   -0.00249    0.00014
 34 O    -0.10554   -0.06467    0.13085
 35 O     0.06832    0.08683    0.06776
 36 O    -1.90715    0.00045    1.53535
 37 O    -1.95669    0.00416    1.58636
 38 Ti    3.65073   -0.03748    1.73035
 39 Ti    3.88080   -0.00188    1.92870
 40 Ti   -1.85984    0.01243   -1.58883
 41 Ti   -1.51197   -0.02481   -1.64979
 42 O     0.94031   -0.02590   -0.21023
 43 O     0.82934    0.00430   -0.19727
 44 O    -0.74818   -0.02926   -0.75641
 45 O    -0.72719    0.01030   -0.77279
 46 O    -0.31211   -0.01037   -0.88506
 47 O    -0.19925    0.00739   -0.90721
 48 O    -0.01199   -0.00771    0.02631
 49 O     0.00662   -0.00167   -0.01037
 50 Ti   -0.00007   -0.01697    0.05704
 51 Ti   -0.01208   -0.01688    0.04282
 52 Ti   -0.00003    0.00348    0.04319
 53 Ti   -0.04314    0.01476    0.02913
 54 O     0.07194    0.05301   -0.00461
 55 O     0.10382    0.03435   -0.02859
 56 O     0.01321   -0.00527    0.06193
 57 O     0.03128   -0.02619    0.11451
 58 O     0.04889   -0.00523    0.06344
 59 O     0.03858    0.03029    0.09774
 60 O     0.01572   -0.01223    0.05097
 61 O    -0.00824   -0.01758   -0.02232
 62 Ti   -0.22848   -0.20296    0.00581
 63 Ti    0.05237   -0.09040    0.02962
 64 Ti   -0.12720   -0.14404   -0.05636
 65 Ti    0.01819   -0.01744   -0.10261
 66 O     0.13638    0.19761    0.29175
 67 O    -0.03945   -0.05300    0.01776
 68 O    -0.03292    0.04493    0.01801
 69 O     0.16647    0.01863    0.04126
 70 O    -0.07238    0.03932    0.28358
 71 O    -0.13501   -0.04634   -0.01462
 72 O    -1.89966    0.00051    1.55691
 73 O    -1.97433   -0.00527    1.60373
 74 Ti    3.58132    0.04041    1.68821
 75 Ti    3.86454    0.01459    1.94962
 76 Ti   -1.97723    0.01016   -2.03129
 77 Ti   -1.55011    0.01598   -2.03051
 78 O     0.96164    0.00868   -0.21508
 79 O     0.84725   -0.05367   -0.17563
 80 O    -0.69655   -0.01768   -0.64163
 81 O    -0.72042   -0.00760   -0.67607
 82 O    -0.32758   -0.01687   -0.87367
 83 O    -0.22342   -0.09553   -0.84974
 84 O    -0.04797    0.00033    0.03846
 85 O    -0.00949   -0.01043    0.05114
 86 Ti    0.05750   -0.01069   -0.02837
 87 Ti    0.09997   -0.04007   -0.03307
 88 Ti    0.03700    0.02875    0.06211
 89 Ti   -0.03847    0.07407    0.01880
 90 O     0.00264    0.00742   -0.03252
 91 O     0.00361   -0.03010   -0.03646
 92 O     0.01149   -0.01404    0.03030
 93 O     0.08738    0.02422    0.08635
 94 O     0.02396    0.00512    0.05358
 95 O     0.01652   -0.01194    0.02893
 96 O     0.04217    0.00820    0.00382
 97 O    -0.00930    0.01651    0.04921
 98 Ti   -0.03938   -0.06574    0.10220
 99 Ti    0.09184    0.07123    0.00839
100 Ti    0.03261    0.21588    0.07078
101 Ti    0.04565    0.09531   -0.01129
102 O     0.05820    0.01319    0.16389
103 O    -0.04439   -0.04459    0.11845
104 O     0.00972   -0.01575   -0.06130
105 O    -0.15588   -0.01456   -0.02049
106 O    -0.10464   -0.03778    0.12365
107 O    -0.10055   -0.05581    0.13131
108 V    -0.05777    0.09712   -0.15948
109 V    -0.01876    0.26402   -0.05162
110 O     0.14307   -0.05858    0.21156
111 O     0.15520    0.04474    0.14279
112 O     0.03766   -0.12408    0.10836
113 O    -0.04522    0.07187    0.03365
114 O    -0.12514   -0.09233    0.05410

System changes: positions 

Initializing position-dependent things.

Density initialized from wave functions
                                                
                                                
                                                
                                                
                                                
                                                
                      O                         
                                                
              O     O V O       Ti              
                  Oi O   O      O    O          
                  O    OV   OO      Ti          
           O   Ti       O    Ti   O             
                      Oi   O O                  
         O     O    O      Ti     Ti            
             Tii   OOi     OO   O               
              O   O     O Ti   TiOi             
          O Ti   TiO      O    O     O          
            O   O      Ti     TiO               
                TiO      O  O  O   O Ti         
         Ti   O O    O Oi    Ti     O           
         O     Ti    Ti    OTi  O Ti            
             OTi    O O   O                     
                  O Ti     Oi     O             
             Oi     O    O      Ti              
           O     OTi    Ti     O                
          Ti          O      O                  
               O                                
                                                
                                                
                                                
                                                

Positions:
   0 O      8.476572    1.911173    6.000000    ( 0.0000,  0.0000,  0.0000)
   1 O      3.305699    0.000000    6.000000    ( 0.0000,  0.0000,  0.0000)
   2 Ti     1.412752    0.000000    6.752957    ( 0.0000,  0.0000,  0.0000)
   3 Ti     6.583625    1.911173    6.752957    ( 0.0000,  0.0000,  0.0000)
   4 Ti     9.522250    1.911173    7.640878    ( 0.0000,  0.0000,  0.0000)
   5 Ti     4.351376    0.000000    7.640878    ( 0.0000,  0.0000,  0.0000)
   6 O      9.861551    0.000000    7.505914    ( 0.0000,  0.0000,  0.0000)
   7 O      4.690678    1.911173    7.505914    ( 0.0000,  0.0000,  0.0000)
   8 O      7.629303    1.911173    8.393834    ( 0.0000,  0.0000,  0.0000)
   9 O      2.458430    0.000000    8.393834    ( 0.0000,  0.0000,  0.0000)
  10 O      6.244323    0.000000    6.887921    ( 0.0000,  0.0000,  0.0000)
  11 O      1.073450    1.911173    6.887921    ( 0.0000,  0.0000,  0.0000)
[...]
               O                                
                                                
                                                
                                                
                                                

Positions:
   0 O      8.476572    1.911173    6.000000    ( 0.0000,  0.0000,  0.0000)
   1 O      3.305699    0.000000    6.000000    ( 0.0000,  0.0000,  0.0000)
   2 Ti     1.412752    0.000000    6.752957    ( 0.0000,  0.0000,  0.0000)
   3 Ti     6.583625    1.911173    6.752957    ( 0.0000,  0.0000,  0.0000)
   4 Ti     9.522250    1.911173    7.640878    ( 0.0000,  0.0000,  0.0000)
   5 Ti     4.351376    0.000000    7.640878    ( 0.0000,  0.0000,  0.0000)
   6 O      9.861551    0.000000    7.505914    ( 0.0000,  0.0000,  0.0000)
   7 O      4.690678    1.911173    7.505914    ( 0.0000,  0.0000,  0.0000)
   8 O      7.629303    1.911173    8.393834    ( 0.0000,  0.0000,  0.0000)
   9 O      2.458430    0.000000    8.393834    ( 0.0000,  0.0000,  0.0000)
  10 O      6.244323    0.000000    6.887921    ( 0.0000,  0.0000,  0.0000)
  11 O      1.073450    1.911173    6.887921    ( 0.0000,  0.0000,  0.0000)
  12 O      9.795571    1.914089    9.604842    ( 0.0000,  0.0000,  0.0000)
  13 O      4.628628   -0.008758    9.605535    ( 0.0000,  0.0000,  0.0000)
  14 Ti     2.780545   -0.006326   10.402231    ( 0.0000,  0.0000,  0.0000)
  15 Ti     7.954301    1.893554   10.399105    ( 0.0000,  0.0000,  0.0000)
  16 Ti     0.509048    1.918390   11.158325    ( 0.0000,  0.0000,  0.0000)
  17 Ti     5.661126   -0.012238   11.166903    ( 0.0000,  0.0000,  0.0000)
  18 O      0.919479   -0.004630   11.073933    ( 0.0000,  0.0000,  0.0000)
  19 O      6.099517    1.896244   11.103801    ( 0.0000,  0.0000,  0.0000)
  20 O      9.048285    1.886711   11.990195    ( 0.0000,  0.0000,  0.0000)
  21 O      3.869125   11.461504   11.989290    ( 0.0000,  0.0000,  0.0000)
  22 O      7.578521   -0.009862   10.502977    ( 0.0000,  0.0000,  0.0000)
  23 O      2.400561    1.908170   10.486999    ( 0.0000,  0.0000,  0.0000)
  24 O      0.927977    1.882809   13.114752    ( 0.0000,  0.0000,  0.0000)
  25 O      6.088226   11.374983   13.124877    ( 0.0000,  0.0000,  0.0000)
  26 Ti     4.225228   -0.015628   14.081439    ( 0.0000,  0.0000,  0.0000)
  27 Ti     9.386734    1.839104   14.037724    ( 0.0000,  0.0000,  0.0000)
  28 Ti     1.844629    1.894420   14.653331    ( 0.0000,  0.0000,  0.0000)
  29 Ti     7.016873   11.411810   14.647559    ( 0.0000,  0.0000,  0.0000)
  30 O      2.379376   11.459290   14.870588    ( 0.0000,  0.0000,  0.0000)
  31 O      7.527335    1.842909   14.734505    ( 0.0000,  0.0000,  0.0000)
  32 O      0.205849    1.860485   15.483607    ( 0.0000,  0.0000,  0.0000)
  33 O      5.408419    0.006545   15.516956    ( 0.0000,  0.0000,  0.0000)
  34 O      9.009121   11.410293   14.095674    ( 0.0000,  0.0000,  0.0000)
  35 O      3.822183    1.892589   14.077988    ( 0.0000,  0.0000,  0.0000)
  36 O      8.476572    5.733518    6.000000    ( 0.0000,  0.0000,  0.0000)
  37 O      3.305699    3.822345    6.000000    ( 0.0000,  0.0000,  0.0000)
  38 Ti     1.412752    3.822345    6.752957    ( 0.0000,  0.0000,  0.0000)
  39 Ti     6.583625    5.733518    6.752957    ( 0.0000,  0.0000,  0.0000)
  40 Ti     9.522250    5.733518    7.640878    ( 0.0000,  0.0000,  0.0000)
  41 Ti     4.351376    3.822345    7.640878    ( 0.0000,  0.0000,  0.0000)
  42 O      9.861551    3.822345    7.505914    ( 0.0000,  0.0000,  0.0000)
  43 O      4.690678    5.733518    7.505914    ( 0.0000,  0.0000,  0.0000)
  44 O      7.629303    5.733518    8.393834    ( 0.0000,  0.0000,  0.0000)
  45 O      2.458430    3.822345    8.393834    ( 0.0000,  0.0000,  0.0000)
  46 O      6.244323    3.822345    6.887921    ( 0.0000,  0.0000,  0.0000)
  47 O      1.073450    5.733518    6.887921    ( 0.0000,  0.0000,  0.0000)
  48 O      9.801437    5.725871    9.627543    ( 0.0000,  0.0000,  0.0000)
  49 O      4.632612    3.820363    9.633475    ( 0.0000,  0.0000,  0.0000)
  50 Ti     2.798482    3.817729   10.340973    ( 0.0000,  0.0000,  0.0000)
  51 Ti     8.025080    5.709964   10.379889    ( 0.0000,  0.0000,  0.0000)
  52 Ti     0.533429    5.709275   11.320269    ( 0.0000,  0.0000,  0.0000)
  53 Ti     5.719557    3.824210   11.259665    ( 0.0000,  0.0000,  0.0000)
  54 O      0.924656    3.816088   11.091039    ( 0.0000,  0.0000,  0.0000)
  55 O      6.088006    5.719065   11.107647    ( 0.0000,  0.0000,  0.0000)
  56 O      9.035526    5.712369   12.010658    ( 0.0000,  0.0000,  0.0000)
  57 O      3.844642    3.762558   11.994063    ( 0.0000,  0.0000,  0.0000)
  58 O      7.572827    3.811432   10.520207    ( 0.0000,  0.0000,  0.0000)
  59 O      2.416541    5.725567   10.518559    ( 0.0000,  0.0000,  0.0000)
  60 O      0.903634    5.725383   13.200698    ( 0.0000,  0.0000,  0.0000)
  61 O      6.026389    3.807566   13.228957    ( 0.0000,  0.0000,  0.0000)
  62 Ti     4.163236    3.801004   13.890961    ( 0.0000,  0.0000,  0.0000)
  63 Ti     9.463415    5.726867   14.057163    ( 0.0000,  0.0000,  0.0000)
  64 Ti     1.926701    5.684227   15.021782    ( 0.0000,  0.0000,  0.0000)
  65 Ti     7.197878    3.795105   14.840291    ( 0.0000,  0.0000,  0.0000)
  66 O      2.345567    3.780750   14.835209    ( 0.0000,  0.0000,  0.0000)
  67 O      7.512826    5.749743   14.800732    ( 0.0000,  0.0000,  0.0000)
  68 O      0.183560    5.707623   15.572186    ( 0.0000,  0.0000,  0.0000)
  69 O      5.208223    3.843171   15.602657    ( 0.0000,  0.0000,  0.0000)
  70 O      8.978904    3.802636   14.102973    ( 0.0000,  0.0000,  0.0000)
  71 O      3.790943    5.710093   13.945821    ( 0.0000,  0.0000,  0.0000)
  72 O      8.476572    9.555862    6.000000    ( 0.0000,  0.0000,  0.0000)
  73 O      3.305699    7.644690    6.000000    ( 0.0000,  0.0000,  0.0000)
  74 Ti     1.412752    7.644690    6.752957    ( 0.0000,  0.0000,  0.0000)
  75 Ti     6.583625    9.555862    6.752957    ( 0.0000,  0.0000,  0.0000)
  76 Ti     9.522250    9.555862    7.640878    ( 0.0000,  0.0000,  0.0000)
  77 Ti     4.351376    7.644690    7.640878    ( 0.0000,  0.0000,  0.0000)
  78 O      9.861551    7.644690    7.505914    ( 0.0000,  0.0000,  0.0000)
  79 O      4.690678    9.555862    7.505914    ( 0.0000,  0.0000,  0.0000)
  80 O      7.629303    9.555862    8.393834    ( 0.0000,  0.0000,  0.0000)
  81 O      2.458430    7.644690    8.393834    ( 0.0000,  0.0000,  0.0000)
  82 O      6.244323    7.644690    6.887921    ( 0.0000,  0.0000,  0.0000)
  83 O      1.073450    9.555862    6.887921    ( 0.0000,  0.0000,  0.0000)
  84 O      9.799086    9.552176    9.605959    ( 0.0000,  0.0000,  0.0000)
  85 O      4.626529    7.624231    9.604206    ( 0.0000,  0.0000,  0.0000)
  86 Ti     2.737058    7.629118   10.342833    ( 0.0000,  0.0000,  0.0000)
  87 Ti     7.957359    9.555921   10.405834    ( 0.0000,  0.0000,  0.0000)
  88 Ti     0.494371    9.555346   11.165814    ( 0.0000,  0.0000,  0.0000)
  89 Ti     5.714948    7.613513   11.126979    ( 0.0000,  0.0000,  0.0000)
  90 O      0.924109    7.637678   11.093193    ( 0.0000,  0.0000,  0.0000)
  91 O      6.095282    9.540889   11.069732    ( 0.0000,  0.0000,  0.0000)
  92 O      9.038067    9.523271   11.991817    ( 0.0000,  0.0000,  0.0000)
  93 O      3.858777    7.668318   11.968367    ( 0.0000,  0.0000,  0.0000)
  94 O      7.574402    7.624981   10.498875    ( 0.0000,  0.0000,  0.0000)
  95 O      2.396580    9.546508   10.494500    ( 0.0000,  0.0000,  0.0000)
  96 O      0.907119    9.609652   13.126171    ( 0.0000,  0.0000,  0.0000)
  97 O      6.067233    7.660436   13.137243    ( 0.0000,  0.0000,  0.0000)
  98 Ti     4.074519    7.596620   13.847506    ( 0.0000,  0.0000,  0.0000)
  99 Ti     9.402751    9.526878   14.089634    ( 0.0000,  0.0000,  0.0000)
 100 Ti     1.860991    9.575228   14.640174    ( 0.0000,  0.0000,  0.0000)
 101 Ti     7.034623    7.600922   14.624630    ( 0.0000,  0.0000,  0.0000)
 102 O      2.340500    7.673706   14.681175    ( 0.0000,  0.0000,  0.0000)
 103 O      7.528431    9.503982   14.884703    ( 0.0000,  0.0000,  0.0000)
 104 O      0.237858    9.498602   15.514349    ( 0.0000,  0.0000,  0.0000)
 105 O      5.305659    7.465825   15.579547    ( 0.0000,  0.0000,  0.0000)
 106 O      8.960968    7.623829   14.089516    ( 0.0000,  0.0000,  0.0000)
 107 O      3.845364    9.550364   14.097372    ( 0.0000,  0.0000,  0.0000)
 108 V      4.391135    6.793514   17.073412    ( 0.0000,  0.0000,  0.0000)
 109 V      5.821583    3.975937   17.281126    ( 0.0000,  0.0000,  0.0000)
 110 O      5.333995    2.814969   18.257119    ( 0.0000,  0.0000,  0.0000)
 111 O      2.919774    5.952050   16.616839    ( 0.0000,  0.0000,  0.0000)
 112 O      5.455357    5.646131   17.908271    ( 0.0000,  0.0000,  0.0000)
 113 O      4.041011    8.007099   18.041030    ( 0.0000,  0.0000,  0.0000)
 114 O      7.470192    3.778324   16.741535    ( 0.0000,  0.0000,  0.0000)

Unit cell:
           periodic     x           y           z      points  spacing
  1. axis:    yes   10.341746    0.000000    0.000000    54     0.1915
  2. axis:    yes   -0.000000   11.467000    0.000000    60     0.1911
  3. axis:    no     0.000000    0.000000   23.497201   125     0.1880

  Lengths:  10.341746  11.467000  23.497201
  Angles:   90.000000  90.000000  90.000000

Effective grid spacing dv^(1/3) = 0.1902

                     log10-error:    total        iterations:
           time      wfs    density  energy       fermi  poisson
iter:   1  17:10:49  -5.96   +inf  -956.196364    1             
iter:   2  17:11:43  -6.89  -4.74  -956.196361    1             
iter:   3  17:12:38  -6.19  -4.77  -956.196361    1             
iter:   4  17:13:32  -7.54  -4.92  -956.196352    1             

Converged after 4 iterations.

Dipole moment: (-17.428097, 23.502389, -1.527283) |e|*Ang

Energy contributions relative to reference atoms: (reference = -1044851.132452)

Kinetic:       +668.972262
Potential:     -862.072941
External:        +0.000000
XC:            -770.811363
Entropy (-ST):   -0.000485
Local:           +7.715933
--------------------------
Free energy:   -956.196595
Extrapolated:  -956.196352

Fermi level: -0.77332

Showing only first 2 kpts
 Kpt  Band  Eigenvalues  Occupancy
  0   458     -1.84589    0.22222
  0   459     -1.84257    0.22222
  0   460      0.07917    0.00004
  0   461      0.23602    0.00001

  1   458     -1.86360    0.44444
  1   459     -1.83206    0.44443
  1   460      0.27204    0.00001
  1   461      0.37462    0.00000



Forces in eV/Ang:
  0 O    -1.84101    0.00344    1.58838
  1 O    -1.84782   -0.00328    1.58052
  2 Ti    3.87347    0.01289    2.00909
  3 Ti    3.85231   -0.01491    1.98377
  4 Ti   -1.99046   -0.00739   -1.88404
  5 Ti   -1.95977    0.01188   -1.89503
  6 O     0.88847   -0.00658   -0.15853
  7 O     0.84349    0.03617   -0.14922
  8 O    -0.64841   -0.00942   -0.49028
  9 O    -0.64201   -0.01371   -0.55318
 10 O    -0.29440    0.00546   -0.89330
 11 O    -0.24816    0.08657   -0.89353
 12 O     0.00636   -0.00128   -0.00271
 13 O     0.00281    0.00019    0.00568
 14 Ti   -0.00206   -0.00205   -0.00315
 15 Ti    0.00171   -0.00111    0.00319
 16 Ti   -0.00114   -0.00104    0.00270
 17 Ti    0.00130   -0.00108   -0.00172
 18 O    -0.00107    0.00055    0.00134
 19 O     0.00454   -0.00128   -0.00189
 20 O     0.00040   -0.00132   -0.00022
 21 O     0.00120   -0.00187   -0.00361
 22 O     0.00247   -0.00033    0.00238
 23 O    -0.00181    0.00094    0.00134
 24 O     0.00064   -0.00066   -0.00343
 25 O     0.00042    0.00941   -0.00130
 26 Ti   -0.00116   -0.00164    0.00233
 27 Ti    0.00087   -0.00274    0.00099
 28 Ti   -0.00113   -0.00285    0.00403
 29 Ti    0.00295    0.00124    0.00128
 30 O     0.00287   -0.00113   -0.00076
 31 O     0.00477   -0.00776    0.01033
 32 O     0.00071   -0.00031    0.00114
 33 O    -0.00402   -0.00439   -0.00087
 34 O     0.00012   -0.00226   -0.00108
 35 O     0.00402   -0.00086    0.00155
 36 O    -1.84008    0.00116    1.56176
 37 O    -1.87440    0.00506    1.61974
 38 Ti    3.65833   -0.05097    1.80612
 39 Ti    3.91053   -0.01527    1.99833
 40 Ti   -1.94893   -0.01322   -1.44034
 41 Ti   -1.61458   -0.01994   -1.56455
 42 O     0.94126   -0.00924   -0.19667
 43 O     0.81470   -0.00542   -0.17034
 44 O    -0.68976   -0.03456   -0.59225
 45 O    -0.66611    0.01112   -0.51778
 46 O    -0.33437    0.00245   -0.85404
 47 O    -0.20990    0.02350   -0.89290
 48 O    -0.00351   -0.00142    0.00080
 49 O     0.00065   -0.00064    0.00039
 50 Ti   -0.00179   -0.00190    0.00083
 51 Ti    0.00208   -0.00090    0.00027
 52 Ti   -0.00148   -0.00108    0.00122
 53 Ti    0.00275   -0.00070    0.00225
 54 O     0.00140   -0.00181   -0.00092
 55 O    -0.00075    0.00249    0.00014
 56 O    -0.00195   -0.00097    0.00064
 57 O    -0.00360   -0.00076   -0.00263
 58 O    -0.00489   -0.00126    0.00182
 59 O    -0.00265    0.00225    0.00135
 60 O     0.00597   -0.00169   -0.00212
 61 O     0.00140   -0.00342   -0.01092
 62 Ti    0.00043    0.00151    0.00202
 63 Ti   -0.00127   -0.00096   -0.00256
 64 Ti    0.00401   -0.00147   -0.00229
 65 Ti    0.00004    0.00149    0.00512
 66 O     0.00549    0.00387   -0.00119
 67 O     0.00853   -0.00088   -0.00457
 68 O    -0.00079    0.00013    0.00011
 69 O    -0.00006    0.00455   -0.00593
 70 O     0.00731    0.00623   -0.00283
 71 O    -0.00533   -0.00103    0.00172
 72 O    -1.82508   -0.00398    1.58774
 73 O    -1.91711   -0.00723    1.62814
 74 Ti    3.59751    0.03561    1.73689
 75 Ti    3.88606    0.02243    2.00798
 76 Ti   -2.04321    0.02753   -1.89662
 77 Ti   -1.60542    0.01169   -1.92546
 78 O     0.95302    0.00460   -0.18288
 79 O     0.83684   -0.07255   -0.14306
 80 O    -0.62490   -0.02475   -0.52672
 81 O    -0.69251   -0.01900   -0.49868
 82 O    -0.34627   -0.00734   -0.87973
 83 O    -0.24000   -0.11114   -0.89242
 84 O     0.00066    0.00080   -0.00046
 85 O     0.00848   -0.00242    0.00330
 86 Ti    0.00052    0.00118    0.00011
 87 Ti   -0.00010    0.00100   -0.00129
 88 Ti    0.00120    0.00118   -0.00095
 89 Ti   -0.00004   -0.00218   -0.00272
 90 O     0.00233    0.00195   -0.00252
 91 O     0.00231    0.00282   -0.00034
 92 O    -0.00038   -0.00096    0.00153
 93 O    -0.00135   -0.00188   -0.00054
 94 O    -0.00328    0.00122    0.00176
 95 O    -0.00267   -0.00067    0.00401
 96 O     0.00292   -0.00185   -0.00137
 97 O     0.00522   -0.00092    0.00190
 98 Ti   -0.00092    0.00104    0.00127
 99 Ti   -0.00333   -0.00133   -0.00171
100 Ti    0.00165   -0.00145   -0.00045
101 Ti   -0.00087    0.00390   -0.00408
102 O     0.00215    0.00295   -0.00095
103 O     0.00249    0.00148   -0.00575
104 O     0.00259   -0.00079    0.00436
105 O    -0.00956   -0.00245    0.00485
106 O     0.00003   -0.00002    0.00065
107 O    -0.00044    0.00003   -0.00167
108 V     0.00404    0.00923    0.00569
109 V     0.00528    0.01036    0.00238
110 O    -0.00036    0.01055    0.00157
111 O     0.00131   -0.00242   -0.00187
112 O     0.00990    0.01156   -0.01252
113 O    -0.00409    0.00290   -0.00786
114 O    -0.00042    0.00620   -0.01147

Timing:                                      incl.     excl.
-------------------------------------------------------------------
Density initialized from wave functions:   225.014   225.012   0.3% |
 Symmetrize density:                         0.002     0.002   0.0% |
Forces:                                   1508.362  1508.362   2.1% ||
Hamiltonian:                                81.097     1.603   0.0% |
 Atomic:                                    21.645     0.147   0.0% |
  XC Correction:                            21.498    21.498   0.0% |
 Calculate atomic Hamiltonians:             40.521    40.521   0.1% |
 Communicate:                                4.006     4.006   0.0% |
 Initialize Hamiltonian:                     0.000     0.000   0.0% |
 Poisson:                                    0.097     0.097   0.0% |
 XC 3D grid:                                13.224    13.224   0.0% |
LCAO initialization:                       188.639     1.584   0.0% |
 LCAO eigensolver:                          64.622     0.097   0.0% |
  Calculate projections:                     0.000     0.000   0.0% |
  DenseAtomicCorrection:                     0.001     0.001   0.0% |
  Distribute overlap matrix:                 5.323     5.323   0.0% |
  Orbital Layouts:                          52.993    52.993   0.1% |
  Potential matrix:                          0.039     0.039   0.0% |
  Sum over cells:                            6.170     6.170   0.0% |
 LCAO to grid:                             117.122   117.122   0.2% |
 Set positions (LCAO WFS):                   5.312     4.375   0.0% |
  Basic WFS set positions:                   0.003     0.003   0.0% |
  Basis functions set positions:             0.001     0.001   0.0% |
  P tci:                                     0.034     0.034   0.0% |
  ST tci:                                    0.634     0.634   0.0% |
  mktci:                                     0.265     0.265   0.0% |
PWDescriptor:                                0.186     0.186   0.0% |
Redistribute:                                0.154     0.154   0.0% |
SCF-cycle:                               70055.805     1.855   0.0% |
 Davidson:                               66615.532 15883.684  21.9% |--------|
  Apply H:                                9591.366  9218.190  12.7% |----|
   HMM T:                                  373.176   373.176   0.5% |
  Subspace diag:                          7388.127     0.907   0.0% |
   calc_h_matrix:                         4326.183  1134.284   1.6% ||
    Apply H:                              3191.899  3057.772   4.2% |-|
     HMM T:                                134.127   134.127   0.2% |
   diagonalize:                            949.358   949.358   1.3% ||
   rotate_psi:                            2111.678  2111.678   2.9% ||
  calc. matrices:                        14882.964  8570.483  11.8% |----|
   Apply H:                               6312.481  6082.031   8.4% |--|
    HMM T:                                 230.450   230.450   0.3% |
  diagonalize:                           14330.810 14330.810  19.8% |-------|
  rotate_psi:                             4538.581  4538.581   6.3% |--|
 Density:                                 2117.663     0.031   0.0% |
  Atomic density matrices:                  13.591    13.591   0.0% |
  Mix:                                     438.060   438.060   0.6% |
  Multipole moments:                         0.421     0.421   0.0% |
  Pseudo density:                         1665.559  1665.536   2.3% ||
   Symmetrize density:                       0.022     0.022   0.0% |
 Hamiltonian:                              754.415    14.780   0.0% |
  Atomic:                                  200.919     1.559   0.0% |
   XC Correction:                          199.361   199.361   0.3% |
  Calculate atomic Hamiltonians:           375.992   375.992   0.5% |
  Communicate:                              38.762    38.762   0.1% |
  Poisson:                                   0.850     0.850   0.0% |
  XC 3D grid:                              123.111   123.111   0.2% |
 Orthonormalize:                           566.341     0.134   0.0% |
  calc_s_matrix:                            54.300    54.300   0.1% |
  inverse-cholesky:                         47.115    47.115   0.1% |
  projections:                             363.602   363.602   0.5% |
  rotate_psi_s:                            101.189   101.189   0.1% |
Set symmetry:                                0.001     0.001   0.0% |
Other:                                     423.695   423.695   0.6% |
-------------------------------------------------------------------
Total:                                             72482.953 100.0%

Memory usage: 1.33 GiB
Date: Sat May 25 17:13:44 2019
