
  ___ ___ ___ _ _ _  
 |   |   |_  | | | | 
 | | | | | . | | | | 
 |__ |  _|___|_____|  1.5.1
 |___|_|             

User:   siva@s81n21.grendel.cscaa.dk
Date:   Sat May 25 00:00:40 2019
Arch:   x86_64
Pid:    27306
Python: 3.6.3
gpaw:   /home/siva/gpaw-1.5.1/gpaw
_gpaw:  /home/siva/gpaw-1.5.1/build/bin.linux-x86_64-3.6/gpaw-python
ase:    /home/siva/env1.5/lib/python3.6/site-packages/ase (version 3.17.0)
numpy:  /home/siva/env1.5/lib/python3.6/site-packages/numpy (version 1.16.0)
scipy:  /home/siva/env1.5/lib/python3.6/site-packages/scipy (version 1.2.0)
units:  Angstrom and eV
cores:  24
Extra parameters: {'blacs': True}

Input parameters:
  basis: dzp
  kpts: [3 3 1]
  mode: {ecut: 500.0,
         gammacentered: False,
         name: pw}
  xc: PBE

System changes: positions, numbers, cell, pbc, initial_charges, initial_magmoms 

Initialize ...

O-setup:
  name: Oxygen
  id: 32ecd46bf208036f09c70b0ec9a88b78
  Z: 8
  valence: 6
  core: 2
  charge: 0.0
  file: /home/wido/sw/gpaw/basis/gpaw-setups-0.9.20000/O.PBE.gz
  cutoffs: 0.67(comp), 1.17(filt), 0.83(core), lmax=2
  valence states:
                energy  radius
    2s(2.00)   -23.961   0.688
    2p(4.00)    -9.029   0.598
    *s           3.251   0.688
    *p          18.182   0.598
    *d           0.000   0.619

  LCAO basis set for O:
    Name: dzp
    File: /home/wido/sw/gpaw/basis/gpaw-setups-0.9.20000/O.dzp.basis.gz
    Number of radial functions: 5
    Number of spherical harmonics: 13
      l=0, rc=4.3438 Bohr: 2s-sz confined orbital
      l=1, rc=5.3906 Bohr: 2p-sz confined orbital
      l=0, rc=2.2969 Bohr: 2s-dz split-valence wave
      l=1, rc=2.8906 Bohr: 2p-dz split-valence wave
      l=2, rc=5.3906 Bohr: d-type Gaussian polarization

Ti-setup:
  name: Titanium
  id: d282db07e62ae71292040bf25b25ccdd
  Z: 22
  valence: 12
  core: 10
  charge: 0.0
  file: /home/wido/sw/gpaw/basis/gpaw-setups-0.9.20000/Ti.PBE.gz
  cutoffs: 1.22(comp), 2.23(filt), 1.02(core), lmax=2
  valence states:
                energy  radius
    3s(2.00)   -62.623   1.270
    4s(2.00)    -4.466   1.270
    3p(6.00)   -38.862   1.058
    4p(0.00)    -1.466   1.058
    3d(2.00)    -4.258   1.058
    *d          22.953   1.058

  LCAO basis set for Ti:
    Name: dzp
    File: /home/wido/sw/gpaw/basis/gpaw-setups-0.9.20000/Ti.dzp.basis.gz
    Number of radial functions: 11
    Number of spherical harmonics: 29
      l=0, rc=3.4375 Bohr: 3s-sz confined orbital
      l=0, rc=9.9062 Bohr: 4s-sz confined orbital
      l=1, rc=3.8906 Bohr: 3p-sz confined orbital
      l=1, rc=13.1094 Bohr: 4p-sz confined orbital
      l=2, rc=6.6250 Bohr: 3d-sz confined orbital
      l=0, rc=2.1406 Bohr: 3s-dz split-valence wave
      l=0, rc=6.0156 Bohr: 4s-dz split-valence wave
      l=1, rc=2.3125 Bohr: 3p-dz split-valence wave
      l=1, rc=8.1094 Bohr: 4p-dz split-valence wave
      l=2, rc=3.8594 Bohr: 3d-dz split-valence wave
      l=1, rc=9.9062 Bohr: p-type Gaussian polarization

V-setup:
  name: Vanadium
  id: a8354638d66c808f8c867a10b63fd727
  Z: 23
  valence: 13
  core: 10
  charge: 0.0
  file: /home/wido/sw/gpaw/basis/gpaw-setups-0.9.20000/V.PBE.gz
  cutoffs: 1.19(comp), 2.14(filt), 0.96(core), lmax=2
  valence states:
                energy  radius
    3s(2.00)   -70.222   1.254
    4s(2.00)    -4.702   1.254
    3p(6.00)   -44.043   1.281
    4p(0.00)    -1.444   1.281
    3d(3.00)    -5.164   1.169
    *d          22.047   1.169

  LCAO basis set for V:
    Name: dzp
    File: /home/wido/sw/gpaw/basis/gpaw-setups-0.9.20000/V.dzp.basis.gz
    Number of radial functions: 11
    Number of spherical harmonics: 29
      l=0, rc=3.2656 Bohr: 3s-sz confined orbital
      l=0, rc=9.5312 Bohr: 4s-sz confined orbital
      l=1, rc=3.6719 Bohr: 3p-sz confined orbital
      l=1, rc=12.8750 Bohr: 4p-sz confined orbital
      l=2, rc=6.0938 Bohr: 3d-sz confined orbital
      l=0, rc=2.0625 Bohr: 3s-dz split-valence wave
      l=0, rc=5.7656 Bohr: 4s-dz split-valence wave
      l=1, rc=2.4062 Bohr: 3p-dz split-valence wave
      l=1, rc=7.8906 Bohr: 4p-dz split-valence wave
      l=2, rc=3.6562 Bohr: 3d-dz split-valence wave
      l=1, rc=9.5312 Bohr: p-type Gaussian polarization

Reference energy: -1044851.132452

Spin-paired calculation

Occupation numbers:
  Fermi-Dirac: width=0.1000 eV

Convergence criteria:
  Maximum total energy change: 0.0005 eV / electron
  Maximum integral of absolute density change: 0.0001 electrons
  Maximum integral of absolute eigenstate change: 4e-08 eV^2
  Maximum number of iterations: 333

Symmetries present (total): 1

  ( 1  0  0)
  ( 0  1  0)
  ( 0  0  1)

9 k-points: 3 x 3 x 1 Monkhorst-Pack grid
5 k-points in the irreducible part of the Brillouin zone
       k-points in crystal coordinates                weights
   0:     0.00000000    0.00000000    0.00000000          1/9
   1:     0.00000000    0.33333333    0.00000000          2/9
   2:     0.33333333   -0.33333333    0.00000000          2/9
   3:     0.33333333    0.00000000    0.00000000          2/9
   4:     0.33333333    0.33333333    0.00000000          2/9

Wave functions: Plane wave expansion
  Cutoff energy: 500.000 eV
  Number of coefficients (min, max): 70673, 70768
  Pulay-stress correction: 0.000000 eV/Ang^3 (de/decut=0.000000)
  Using FFTW library
  ScaLapack parameters: grid=1x1, blocksize=None
  Wavefunction extrapolation:
    Improved wavefunction reuse through dual PAW basis 

Eigensolver
   Davidson(niter=2, smin=None, normalize=True) 

Densities:
  Coarse grid: 54*60*125 grid
  Fine grid: 108*120*250 grid
  Total Charge: 0.000000 

Density mixing:
  Method: separate
  Backend: pulay
  Linear mixing parameter: 0.05
  Mixing with 5 old densities
  Damping of long wave oscillations: 50 

Hamiltonian:
  XC and Coulomb potentials evaluated on a 108*120*250 grid
  Using the PBE Exchange-Correlation functional
 

XC parameters: PBE with 2 nearest neighbor stencil

Memory estimate:
  Process memory now: 277.04 MiB
  Calculator: 3689.68 MiB
    Density: 9.56 MiB
      Arrays: 3.37 MiB
      Localized functions: 4.89 MiB
      Mixer: 1.30 MiB
    Hamiltonian: 2.34 MiB
      Arrays: 2.21 MiB
      XC: 0.00 MiB
      Poisson: 0.00 MiB
      vbar: 0.13 MiB
    Wavefunctions: 3677.78 MiB
      Arrays psit_nG: 3001.94 MiB
      Eigensolver: 652.97 MiB
      Projections: 2.98 MiB
      Projectors: 2.92 MiB
      PW-descriptor: 16.97 MiB

Total number of cores used: 24
Domain decomposition: 2 x 2 x 6

Number of atoms: 115
Number of atomic orbitals: 2103
Number of bands in calculation: 556
Bands to converge: occupied states only
Number of valence electrons: 920

... initialized

Initializing position-dependent things.

Density initialized from atomic densities
Creating initial wave functions:
  556 bands from LCAO basis set

                                                
                                                
                                                
                                                
                                                
                                                
                      O                         
                                                
                      V O       Ti              
             O    O   O         O    O          
                  Ti   OVO   O      Ti          
           O   O  O         OTi                 
               Ti     Oi   O O    O             
         O     O    O      Ti     Ti            
             Tii    Ti     OO   O               
             OO   OOO   O Ti   TiOi             
          O Ti   TiOi     O    O     O          
                O      Ti     TiO               
            O   TiO      O  O  O   O Ti         
         Ti     O    O Oi    Ti     O           
         O    OTi    Ti    OTiO   O             
             OTi    O O   O     O Ti            
                  O Ti     Oi     O             
             Oi     O    O      Ti              
           O      Ti    Ti     O                
          Ti          O      O                  
               O                                
                                                
                                                
                                                
                                                

Positions:
   0 O      8.476572    1.911173    6.000000    ( 0.0000,  0.0000,  0.0000)
   1 O      3.305699    0.000000    6.000000    ( 0.0000,  0.0000,  0.0000)
   2 Ti     1.412752    0.000000    6.752957    ( 0.0000,  0.0000,  0.0000)
   3 Ti     6.583625    1.911173    6.752957    ( 0.0000,  0.0000,  0.0000)
   4 Ti     9.522250    1.911173    7.640878    ( 0.0000,  0.0000,  0.0000)
   5 Ti     4.351376    0.000000    7.640878    ( 0.0000,  0.0000,  0.0000)
   6 O      9.861551    0.000000    7.505914    ( 0.0000,  0.0000,  0.0000)
   7 O      4.690678    1.911173    7.505914    ( 0.0000,  0.0000,  0.0000)
   8 O      7.629303    1.911173    8.393834    ( 0.0000,  0.0000,  0.0000)
   9 O      2.458430    0.000000    8.393834    ( 0.0000,  0.0000,  0.0000)
  10 O      6.244323    0.000000    6.887921    ( 0.0000,  0.0000,  0.0000)
  11 O      1.073450    1.911173    6.887921    ( 0.0000,  0.0000,  0.0000)
  12 O      9.797932    1.928107    9.583141    ( 0.0000,  0.0000,  0.0000)
  13 O      4.639713    0.005150    9.579265    ( 0.0000,  0.0000,  0.0000)
  14 Ti     2.750710    0.019264   10.388033    ( 0.0000,  0.0000,  0.0000)
  15 Ti     7.924062    1.916598   10.392358    ( 0.0000,  0.0000,  0.0000)
  16 Ti     0.482966    1.931533   11.125913    ( 0.0000,  0.0000,  0.0000)
  17 Ti     5.645035    0.008540   11.132435    ( 0.0000,  0.0000,  0.0000)
  18 O      0.906816    0.018495   11.066776    ( 0.0000,  0.0000,  0.0000)
  19 O      6.080292    1.917378   11.094875    ( 0.0000,  0.0000,  0.0000)
  20 O      9.030249    1.924194   11.955443    ( 0.0000,  0.0000,  0.0000)
  21 O      3.855590    0.005498   11.941717    ( 0.0000,  0.0000,  0.0000)
  22 O      7.556732    0.003324   10.449720    ( 0.0000,  0.0000,  0.0000)
  23 O      2.386013    1.927488   10.445655    ( 0.0000,  0.0000,  0.0000)
  24 O      0.930466    1.920224   13.077176    ( 0.0000,  0.0000,  0.0000)
  25 O      6.098708   11.449679   13.075303    ( 0.0000,  0.0000,  0.0000)
  26 Ti     4.213907   -0.051191   14.030473    ( 0.0000,  0.0000,  0.0000)
  27 Ti     9.397759    1.828320   14.027591    ( 0.0000,  0.0000,  0.0000)
  28 Ti     1.853756    1.920310   14.600772    ( 0.0000,  0.0000,  0.0000)
  29 Ti     7.005187   11.445581   14.603388    ( 0.0000,  0.0000,  0.0000)
  30 O      2.384327    0.004048   14.817173    ( 0.0000,  0.0000,  0.0000)
  31 O      7.563160    1.835746   14.786981    ( 0.0000,  0.0000,  0.0000)
  32 O      0.225438    1.847591   15.452004    ( 0.0000,  0.0000,  0.0000)
  33 O      5.398246   -0.003622   15.458275    ( 0.0000,  0.0000,  0.0000)
  34 O      9.043567   11.436431   13.948854    ( 0.0000,  0.0000,  0.0000)
  35 O      3.834299    1.912111   13.952903    ( 0.0000,  0.0000,  0.0000)
  36 O      8.476572    5.733518    6.000000    ( 0.0000,  0.0000,  0.0000)
  37 O      3.305699    3.822345    6.000000    ( 0.0000,  0.0000,  0.0000)
  38 Ti     1.412752    3.822345    6.752957    ( 0.0000,  0.0000,  0.0000)
  39 Ti     6.583625    5.733518    6.752957    ( 0.0000,  0.0000,  0.0000)
  40 Ti     9.522250    5.733518    7.640878    ( 0.0000,  0.0000,  0.0000)
  41 Ti     4.351376    3.822345    7.640878    ( 0.0000,  0.0000,  0.0000)
  42 O      9.861551    3.822345    7.505914    ( 0.0000,  0.0000,  0.0000)
  43 O      4.690678    5.733518    7.505914    ( 0.0000,  0.0000,  0.0000)
  44 O      7.629303    5.733518    8.393834    ( 0.0000,  0.0000,  0.0000)
  45 O      2.458430    3.822345    8.393834    ( 0.0000,  0.0000,  0.0000)
  46 O      6.244323    3.822345    6.887921    ( 0.0000,  0.0000,  0.0000)
  47 O      1.073450    5.733518    6.887921    ( 0.0000,  0.0000,  0.0000)
  48 O      9.793768    5.747564    9.602030    ( 0.0000,  0.0000,  0.0000)
  49 O      4.641884    3.829558    9.615327    ( 0.0000,  0.0000,  0.0000)
  50 Ti     2.783885    3.829626   10.332397    ( 0.0000,  0.0000,  0.0000)
  51 Ti     8.011650    5.727848   10.351834    ( 0.0000,  0.0000,  0.0000)
  52 Ti     0.533076    5.714817   11.276444    ( 0.0000,  0.0000,  0.0000)
  53 Ti     5.701854    3.851380   11.220981    ( 0.0000,  0.0000,  0.0000)
  54 O      0.905077    3.829033   11.081862    ( 0.0000,  0.0000,  0.0000)
  55 O      6.059663    5.732238   11.115758    ( 0.0000,  0.0000,  0.0000)
  56 O      9.025805    5.696857   11.967050    ( 0.0000,  0.0000,  0.0000)
  57 O      3.848546    3.820020   11.962276    ( 0.0000,  0.0000,  0.0000)
  58 O      7.543524    3.831838   10.457094    ( 0.0000,  0.0000,  0.0000)
  59 O      2.385127    5.737316   10.452989    ( 0.0000,  0.0000,  0.0000)
  60 O      0.902953    5.727986   13.144655    ( 0.0000,  0.0000,  0.0000)
  61 O      6.045158    3.798973   13.241418    ( 0.0000,  0.0000,  0.0000)
  62 Ti     4.211398    3.762230   13.871551    ( 0.0000,  0.0000,  0.0000)
  63 Ti     9.472847    5.754552   13.972905    ( 0.0000,  0.0000,  0.0000)
  64 Ti     1.935043    5.689417   14.981763    ( 0.0000,  0.0000,  0.0000)
  65 Ti     7.241657    3.813530   14.833947    ( 0.0000,  0.0000,  0.0000)
  66 O      2.349272    3.792680   14.804236    ( 0.0000,  0.0000,  0.0000)
  67 O      7.519147    5.753776   14.772452    ( 0.0000,  0.0000,  0.0000)
  68 O      0.182019    5.745461   15.500549    ( 0.0000,  0.0000,  0.0000)
  69 O      5.181033    3.799904   15.626484    ( 0.0000,  0.0000,  0.0000)
  70 O      8.996878    3.814874   14.114519    ( 0.0000,  0.0000,  0.0000)
  71 O      3.842512    5.718145   13.937677    ( 0.0000,  0.0000,  0.0000)
  72 O      8.476572    9.555862    6.000000    ( 0.0000,  0.0000,  0.0000)
  73 O      3.305699    7.644690    6.000000    ( 0.0000,  0.0000,  0.0000)
  74 Ti     1.412752    7.644690    6.752957    ( 0.0000,  0.0000,  0.0000)
  75 Ti     6.583625    9.555862    6.752957    ( 0.0000,  0.0000,  0.0000)
  76 Ti     9.522250    9.555862    7.640878    ( 0.0000,  0.0000,  0.0000)
  77 Ti     4.351376    7.644690    7.640878    ( 0.0000,  0.0000,  0.0000)
  78 O      9.861551    7.644690    7.505914    ( 0.0000,  0.0000,  0.0000)
  79 O      4.690678    9.555862    7.505914    ( 0.0000,  0.0000,  0.0000)
  80 O      7.629303    9.555862    8.393834    ( 0.0000,  0.0000,  0.0000)
  81 O      2.458430    7.644690    8.393834    ( 0.0000,  0.0000,  0.0000)
  82 O      6.244323    7.644690    6.887921    ( 0.0000,  0.0000,  0.0000)
  83 O      1.073450    9.555862    6.887921    ( 0.0000,  0.0000,  0.0000)
  84 O      9.804451    9.571009    9.580157    ( 0.0000,  0.0000,  0.0000)
  85 O      4.644865    7.643767    9.602037    ( 0.0000,  0.0000,  0.0000)
  86 Ti     2.736014    7.645121   10.329064    ( 0.0000,  0.0000,  0.0000)
  87 Ti     7.920166    9.578263   10.389239    ( 0.0000,  0.0000,  0.0000)
  88 Ti     0.493860    9.556062   11.113437    ( 0.0000,  0.0000,  0.0000)
  89 Ti     5.715100    7.622047   11.145420    ( 0.0000,  0.0000,  0.0000)
  90 O      0.911156    7.654398   11.089785    ( 0.0000,  0.0000,  0.0000)
  91 O      6.080924    9.554754   11.085683    ( 0.0000,  0.0000,  0.0000)
  92 O      9.027400    9.530723   11.941197    ( 0.0000,  0.0000,  0.0000)
  93 O      3.850340    7.644417   11.947992    ( 0.0000,  0.0000,  0.0000)
  94 O      7.545657    7.630820   10.454760    ( 0.0000,  0.0000,  0.0000)
  95 O      2.381021    9.555076   10.445284    ( 0.0000,  0.0000,  0.0000)
  96 O      0.910256    9.676104   13.064337    ( 0.0000,  0.0000,  0.0000)
  97 O      6.074603    7.677335   13.195324    ( 0.0000,  0.0000,  0.0000)
  98 Ti     4.104292    7.559523   13.814667    ( 0.0000,  0.0000,  0.0000)
  99 Ti     9.377503    9.546532   13.991624    ( 0.0000,  0.0000,  0.0000)
 100 Ti     1.845440    9.584276   14.571738    ( 0.0000,  0.0000,  0.0000)
 101 Ti     7.080003    7.604041   14.712421    ( 0.0000,  0.0000,  0.0000)
 102 O      2.347962    7.702818   14.594533    ( 0.0000,  0.0000,  0.0000)
 103 O      7.562714    9.563601   14.810678    ( 0.0000,  0.0000,  0.0000)
 104 O      0.212173    9.462095   15.440795    ( 0.0000,  0.0000,  0.0000)
 105 O      5.303206    7.466883   15.615311    ( 0.0000,  0.0000,  0.0000)
 106 O      8.964563    7.631415   13.954569    ( 0.0000,  0.0000,  0.0000)
 107 O      3.859531    9.576902   13.967146    ( 0.0000,  0.0000,  0.0000)
 108 V      5.831733    3.947863   17.276150    ( 0.0000,  0.0000,  0.0000)
 109 V      4.373789    6.796702   17.062965    ( 0.0000,  0.0000,  0.0000)
 110 O      5.394805    2.776134   18.275315    ( 0.0000,  0.0000,  0.0000)
 111 O      4.061180    8.011389   18.052106    ( 0.0000,  0.0000,  0.0000)
 112 O      2.869397    5.986111   16.572591    ( 0.0000,  0.0000,  0.0000)
 113 O      7.500997    3.825264   16.736997    ( 0.0000,  0.0000,  0.0000)
 114 O      5.411490    5.611500   17.875350    ( 0.0000,  0.0000,  0.0000)

Unit cell:
           periodic     x           y           z      points  spacing
  1. axis:    yes   10.341746    0.000000    0.000000    54     0.1915
  2. axis:    yes   -0.000000   11.467000    0.000000    60     0.1911
  3. axis:    no     0.000000    0.000000   23.497201   125     0.1880

  Lengths:  10.341746  11.467000  23.497201
  Angles:   90.000000  90.000000  90.000000

Effective grid spacing dv^(1/3) = 0.1902

                     log10-error:    total        iterations:
           time      wfs    density  energy       fermi  poisson
iter:   1  00:05:34  -0.12   +inf  -1092.538417    1             
iter:   2  00:06:43  -1.03  -0.96  -1045.247255    2             
iter:   3  00:07:52  +0.45  -1.01  -950.738438    5             
iter:   4  00:09:01  -0.96  -1.35  -963.457473    4             
iter:   5  00:10:09  -1.14  -1.28  -979.977399    2             
iter:   6  00:11:18  -0.11  -1.25  -972.580039    4             
iter:   7  00:12:32  -0.69  -1.64  -971.207835    4             
iter:   8  00:13:41  -1.35  -1.62  -971.382011    3             
iter:   9  00:14:49  -1.27  -1.61  -958.065810    5             
iter:  10  00:15:58  -1.70  -1.58  -957.162653    2             
iter:  11  00:17:06  -1.38  -1.59  -965.307635    5             
iter:  12  00:18:15  -1.99  -1.68  -962.850938    3             
iter:  13  00:19:23  -1.91  -1.71  -961.167633    2             
iter:  14  00:20:32  -2.48  -1.75  -961.318640    2             
iter:  15  00:21:40  -0.69  -1.75  -957.374930    5             
iter:  16  00:22:49  -1.43  -1.76  -956.277693    5             
iter:  17  00:23:58  -1.71  -1.87  -956.319500    3             
iter:  18  00:25:06  -2.26  -1.91  -955.803759    2             
iter:  19  00:26:15  -1.71  -1.93  -956.162081    4             
iter:  20  00:27:24  -2.76  -2.04  -955.990248    3             
iter:  21  00:28:32  -2.12  -2.08  -956.091490    2             
iter:  22  00:29:41  -2.32  -2.21  -955.903702    4             
iter:  23  00:30:50  -3.23  -2.35  -955.866208    3             
iter:  24  00:31:58  -2.90  -2.40  -955.862086    3             
iter:  25  00:33:07  -2.76  -2.54  -955.886362    3             
iter:  26  00:34:16  -3.76  -2.72  -955.857555    3             
iter:  27  00:35:24  -3.77  -2.78  -955.849114    2             
iter:  28  00:36:33  -3.65  -2.84  -955.847889    3             
iter:  29  00:37:47  -3.83  -3.06  -955.844387    2             
iter:  30  00:38:55  -4.39  -3.15  -955.844748    2             
iter:  31  00:40:04  -3.96  -3.18  -955.846305    2             
iter:  32  00:41:12  -4.11  -3.34  -955.845484    2             
iter:  33  00:42:21  -4.97  -3.41  -955.843349    2             
iter:  34  00:43:30  -5.09  -3.45  -955.843025    2             
iter:  35  00:44:38  -5.29  -3.51  -955.843543    2             
iter:  36  00:45:47  -4.95  -3.73  -955.843036    2             
iter:  37  00:46:55  -5.47  -3.94  -955.842982    2             
iter:  38  00:48:04  -6.20  -4.03  -955.842996    2             
iter:  39  00:49:13  -6.30  -4.26  -955.842949    2             
iter:  40  00:50:22  -6.75  -4.45  -955.842946    1             
iter:  41  00:51:30  -7.15  -4.47  -955.842949    1             
iter:  42  00:52:44  -6.92  -4.52  -955.842944    1             
iter:  43  00:53:53  -7.25  -4.69  -955.842945    1             
iter:  44  00:55:02  -7.58  -4.70  -955.842944    1             

Converged after 44 iterations.

Dipole moment: (-17.925111, 4.608716, -1.493554) |e|*Ang

Energy contributions relative to reference atoms: (reference = -1044851.132452)

Kinetic:       +680.594883
Potential:     -871.102360
External:        +0.000000
XC:            -773.008624
Entropy (-ST):   -0.000525
Local:           +7.673420
--------------------------
Free energy:   -955.843207
Extrapolated:  -955.842944

Fermi level: -0.76488

Showing only first 2 kpts
 Kpt  Band  Eigenvalues  Occupancy
  0   458     -1.82677    0.22222
  0   459     -1.82298    0.22222
  0   460      0.08310    0.00005
  0   461      0.23226    0.00001

  1   458     -1.84385    0.44444
  1   459     -1.81199    0.44443
  1   460      0.27146    0.00001
  1   461      0.37199    0.00001



Forces in eV/Ang:
  0 O    -1.89162    0.00813    1.56794
  1 O    -1.91741   -0.00189    1.55458
  2 Ti    3.84677    0.02324    1.94849
  3 Ti    3.85791   -0.02743    1.96039
  4 Ti   -1.97839   -0.02860   -2.02188
  5 Ti   -1.89301    0.01367   -2.03233
  6 O     0.90086    0.01220   -0.19288
  7 O     0.84338    0.08103   -0.17651
  8 O    -0.68286    0.00991   -0.57744
  9 O    -0.66473    0.00727   -0.62409
 10 O    -0.28065   -0.01580   -0.86338
 11 O    -0.23224    0.09133   -0.86051
 12 O    -0.15195   -0.00059    0.02976
 13 O    -0.17478    0.00206    0.03379
 14 Ti    0.03958   -0.02211   -0.08960
 15 Ti    0.05156    0.00100   -0.09454
 16 Ti    0.09043   -0.02266    0.11857
 17 Ti    0.06248    0.01381    0.06329
 18 O     0.11237   -0.03957   -0.11514
 19 O     0.12979    0.00882   -0.03848
 20 O     0.00120    0.02055    0.09012
 21 O     0.02148    0.00396    0.07701
 22 O    -0.00825    0.00938    0.09847
 23 O     0.01906    0.01713    0.04918
 24 O    -0.09852   -0.01403    0.01026
 25 O    -0.03322   -0.03262    0.03702
 26 Ti   -0.07852    0.12466   -0.19133
 27 Ti    0.04144    0.11302   -0.11958
 28 Ti    0.15971   -0.04846    0.04409
 29 Ti    0.18716    0.14782    0.01656
 30 O     0.08027    0.04497    0.12808
 31 O     0.03070    0.03903   -0.03244
 32 O     0.00436   -0.03817    0.06017
 33 O     0.06005   -0.03356    0.12816
 34 O    -0.26005    0.00908    0.15010
 35 O    -0.21430   -0.08717    0.15787
 36 O    -1.91682    0.00608    1.54479
 37 O    -1.90191    0.01038    1.61469
 38 Ti    3.63934   -0.06403    1.77347
 39 Ti    3.87991   -0.02277    1.90780
 40 Ti   -1.84345   -0.01554   -1.62188
 41 Ti   -1.59294   -0.05180   -1.72968
 42 O     0.95292    0.03243   -0.21760
 43 O     0.81931    0.02386   -0.17423
 44 O    -0.78052   -0.01434   -0.74078
 45 O    -0.64455    0.02274   -0.61134
 46 O    -0.32895    0.03740   -0.84263
 47 O    -0.20450    0.03316   -0.90577
 48 O     0.00709   -0.00153    0.10977
 49 O    -0.11385    0.00820    0.02529
 50 Ti   -0.01643   -0.00591    0.01600
 51 Ti   -0.09466   -0.03152   -0.04701
 52 Ti    0.04286    0.02797   -0.04877
 53 Ti    0.00392   -0.08842    0.10501
 54 O     0.18849   -0.00963   -0.10871
 55 O     0.19023    0.04685    0.01836
 56 O    -0.01191    0.00045    0.13100
 57 O     0.00896   -0.00501    0.06684
 58 O    -0.01769    0.01230    0.09610
 59 O     0.01402    0.00616    0.14387
 60 O     0.09883    0.01040    0.04188
 61 O     0.05670    0.00211   -0.12214
 62 Ti   -0.10212    0.05868    0.14959
 63 Ti    0.11609   -0.18556    0.22714
 64 Ti   -0.13651    0.10499   -0.07560
 65 Ti   -0.12753   -0.22384    0.16169
 66 O     0.06461   -0.05455    0.01647
 67 O    -0.00233    0.48769    0.18058
 68 O     0.03468    0.01754   -0.00659
 69 O     0.16670   -0.01656   -0.16193
 70 O    -0.06946   -0.03280   -0.20702
 71 O    -0.17938   -0.00981    0.04527
 72 O    -1.90213   -0.00290    1.56900
 73 O    -1.92985   -0.00556    1.63109
 74 Ti    3.56033    0.04300    1.69412
 75 Ti    3.84813    0.04788    1.93250
 76 Ti   -1.95892    0.04079   -2.04857
 77 Ti   -1.53948    0.03174   -1.90372
 78 O     0.96727    0.01755   -0.21744
 79 O     0.84324   -0.08983   -0.17156
 80 O    -0.66700   -0.03273   -0.56466
 81 O    -0.63614   -0.00677   -0.57384
 82 O    -0.33885   -0.02203   -0.87055
 83 O    -0.22804   -0.12356   -0.84789
 84 O    -0.18128   -0.00606   -0.01028
 85 O    -0.12437   -0.00777    0.06779
 86 Ti    0.02412   -0.00060   -0.02971
 87 Ti    0.08699   -0.02208   -0.12047
 88 Ti    0.07721    0.04134    0.14717
 89 Ti   -0.07728    0.04535   -0.11058
 90 O     0.14028   -0.05879   -0.06518
 91 O     0.12467   -0.04301   -0.04054
 92 O    -0.01955   -0.03044    0.05537
 93 O     0.11492    0.01499   -0.00655
 94 O     0.01012    0.03106    0.15494
 95 O     0.01946    0.00863    0.04417
 96 O    -0.05945   -0.06556   -0.14284
 97 O     0.34136   -0.03001    0.23334
 98 Ti   -0.11937    0.08540    0.10601
 99 Ti    0.43075    0.05630    0.18301
100 Ti   -0.09651    0.00065    0.17104
101 Ti   -0.70866    0.09679   -1.49017
102 O     0.05077   -0.17910    0.21212
103 O    -0.12616   -0.54063    0.44587
104 O     0.13302    0.13389   -0.32624
105 O     0.37665    0.19214   -0.18849
106 O    -0.44547    0.02121    0.38512
107 O    -0.10131   -0.14740    0.19952
108 V     0.09742   -0.19310    0.12230
109 V    -0.32052   -0.05652    0.30953
110 O     0.03826    0.21254   -0.21182
111 O     0.00065   -0.25801   -0.18196
112 O     0.35772    0.19882    0.23366
113 O    -0.28270   -0.03013   -0.10148
114 O    -0.05520    0.10280    0.15530

System changes: positions 

Initializing position-dependent things.

Density initialized from wave functions
                                                
                                                
                                                
                                                
                                                
                                                
                      O                         
                                                
                      V O       Ti              
             O    Oi  O         O    O          
                       OVO   O      Ti          
           O   O  O         OTi                 
               Ti     Oi   O O    O             
         O     O    O      Ti     Ti            
             Tii    Ti     OO   O               
             OO   OOO   O Ti   TiOi             
          O Ti   TiOi     O    O     O          
                O      Ti     TiO               
            O   TiO      O  O  O   O Ti         
         Ti     O    O Oi    Ti     O           
         O    OTi    Ti    OTiO   O             
             OTi    O O   O     O Ti            
                  O Ti     Oi     O             
             Oi     O    O      Ti              
           O      Ti    Ti     O                
          Ti          O      O                  
               O                                
                                                
                                                
                                                
                                                

Positions:
   0 O      8.476572    1.911173    6.000000    ( 0.0000,  0.0000,  0.0000)
   1 O      3.305699    0.000000    6.000000    ( 0.0000,  0.0000,  0.0000)
   2 Ti     1.412752    0.000000    6.752957    ( 0.0000,  0.0000,  0.0000)
   3 Ti     6.583625    1.911173    6.752957    ( 0.0000,  0.0000,  0.0000)
   4 Ti     9.522250    1.911173    7.640878    ( 0.0000,  0.0000,  0.0000)
   5 Ti     4.351376    0.000000    7.640878    ( 0.0000,  0.0000,  0.0000)
   6 O      9.861551    0.000000    7.505914    ( 0.0000,  0.0000,  0.0000)
   7 O      4.690678    1.911173    7.505914    ( 0.0000,  0.0000,  0.0000)
   8 O      7.629303    1.911173    8.393834    ( 0.0000,  0.0000,  0.0000)
   9 O      2.458430    0.000000    8.393834    ( 0.0000,  0.0000,  0.0000)
  10 O      6.244323    0.000000    6.887921    ( 0.0000,  0.0000,  0.0000)
  11 O      1.073450    1.911173    6.887921    ( 0.0000,  0.0000,  0.0000)
  12 O      9.795761    1.928099    9.583566    ( 0.0000,  0.0000,  0.0000)
  13 O      4.637216    0.005180    9.579748    ( 0.0000,  0.0000,  0.0000)
  14 Ti     2.751276    0.018948   10.386753    ( 0.0000,  0.0000,  0.0000)
  15 Ti     7.924799    1.916613   10.391007    ( 0.0000,  0.0000,  0.0000)
  16 Ti     0.484258    1.931209   11.127607    ( 0.0000,  0.0000,  0.0000)
  17 Ti     5.645928    0.008737   11.133339    ( 0.0000,  0.0000,  0.0000)
  18 O      0.908422    0.017930   11.065131    ( 0.0000,  0.0000,  0.0000)
  19 O      6.082146    1.917505   11.094326    ( 0.0000,  0.0000,  0.0000)
  20 O      9.030266    1.924487   11.956731    ( 0.0000,  0.0000,  0.0000)
  21 O      3.855896    0.005554   11.942818    ( 0.0000,  0.0000,  0.0000)
  22 O      7.556614    0.003458   10.451127    ( 0.0000,  0.0000,  0.0000)
  23 O      2.386285    1.927733   10.446358    ( 0.0000,  0.0000,  0.0000)
  24 O      0.929059    1.920023   13.077322    ( 0.0000,  0.0000,  0.0000)
  25 O      6.098234   11.449213   13.075832    ( 0.0000,  0.0000,  0.0000)
  26 Ti     4.212785   -0.049410   14.027739    ( 0.0000,  0.0000,  0.0000)
  27 Ti     9.398351    1.829934   14.025883    ( 0.0000,  0.0000,  0.0000)
  28 Ti     1.856038    1.919617   14.601402    ( 0.0000,  0.0000,  0.0000)
  29 Ti     7.007861   11.447693   14.603624    ( 0.0000,  0.0000,  0.0000)
  30 O      2.385474    0.004690   14.819003    ( 0.0000,  0.0000,  0.0000)
  31 O      7.563599    1.836304   14.786518    ( 0.0000,  0.0000,  0.0000)
  32 O      0.225501    1.847046   15.452864    ( 0.0000,  0.0000,  0.0000)
  33 O      5.399104   -0.004101   15.460106    ( 0.0000,  0.0000,  0.0000)
  34 O      9.039852   11.436561   13.950998    ( 0.0000,  0.0000,  0.0000)
  35 O      3.831237    1.910866   13.955158    ( 0.0000,  0.0000,  0.0000)
  36 O      8.476572    5.733518    6.000000    ( 0.0000,  0.0000,  0.0000)
  37 O      3.305699    3.822345    6.000000    ( 0.0000,  0.0000,  0.0000)
  38 Ti     1.412752    3.822345    6.752957    ( 0.0000,  0.0000,  0.0000)
  39 Ti     6.583625    5.733518    6.752957    ( 0.0000,  0.0000,  0.0000)
  40 Ti     9.522250    5.733518    7.640878    ( 0.0000,  0.0000,  0.0000)
  41 Ti     4.351376    3.822345    7.640878    ( 0.0000,  0.0000,  0.0000)
  42 O      9.861551    3.822345    7.505914    ( 0.0000,  0.0000,  0.0000)
  43 O      4.690678    5.733518    7.505914    ( 0.0000,  0.0000,  0.0000)
  44 O      7.629303    5.733518    8.393834    ( 0.0000,  0.0000,  0.0000)
  45 O      2.458430    3.822345    8.393834    ( 0.0000,  0.0000,  0.0000)
  46 O      6.244323    3.822345    6.887921    ( 0.0000,  0.0000,  0.0000)
  47 O      1.073450    5.733518    6.887921    ( 0.0000,  0.0000,  0.0000)
  48 O      9.793869    5.747542    9.603598    ( 0.0000,  0.0000,  0.0000)
  49 O      4.640258    3.829675    9.615689    ( 0.0000,  0.0000,  0.0000)
  50 Ti     2.783651    3.829542   10.332626    ( 0.0000,  0.0000,  0.0000)
  51 Ti     8.010298    5.727398   10.351163    ( 0.0000,  0.0000,  0.0000)
  52 Ti     0.533688    5.715217   11.275747    ( 0.0000,  0.0000,  0.0000)
  53 Ti     5.701910    3.850117   11.222481    ( 0.0000,  0.0000,  0.0000)
  54 O      0.907770    3.828896   11.080309    ( 0.0000,  0.0000,  0.0000)
  55 O      6.062381    5.732908   11.116021    ( 0.0000,  0.0000,  0.0000)
  56 O      9.025635    5.696864   11.968921    ( 0.0000,  0.0000,  0.0000)
  57 O      3.848674    3.819948   11.963231    ( 0.0000,  0.0000,  0.0000)
  58 O      7.543271    3.832014   10.458467    ( 0.0000,  0.0000,  0.0000)
  59 O      2.385327    5.737404   10.455044    ( 0.0000,  0.0000,  0.0000)
  60 O      0.904365    5.728134   13.145254    ( 0.0000,  0.0000,  0.0000)
  61 O      6.045968    3.799003   13.239673    ( 0.0000,  0.0000,  0.0000)
  62 Ti     4.209939    3.763068   13.873689    ( 0.0000,  0.0000,  0.0000)
  63 Ti     9.474506    5.751901   13.976149    ( 0.0000,  0.0000,  0.0000)
  64 Ti     1.933093    5.690917   14.980683    ( 0.0000,  0.0000,  0.0000)
  65 Ti     7.239835    3.810333   14.836257    ( 0.0000,  0.0000,  0.0000)
  66 O      2.350195    3.791901   14.804471    ( 0.0000,  0.0000,  0.0000)
  67 O      7.519114    5.760743   14.775032    ( 0.0000,  0.0000,  0.0000)
  68 O      0.182515    5.745711   15.500454    ( 0.0000,  0.0000,  0.0000)
  69 O      5.183414    3.799667   15.624171    ( 0.0000,  0.0000,  0.0000)
  70 O      8.995886    3.814405   14.111562    ( 0.0000,  0.0000,  0.0000)
  71 O      3.839949    5.718005   13.938324    ( 0.0000,  0.0000,  0.0000)
  72 O      8.476572    9.555862    6.000000    ( 0.0000,  0.0000,  0.0000)
  73 O      3.305699    7.644690    6.000000    ( 0.0000,  0.0000,  0.0000)
  74 Ti     1.412752    7.644690    6.752957    ( 0.0000,  0.0000,  0.0000)
  75 Ti     6.583625    9.555862    6.752957    ( 0.0000,  0.0000,  0.0000)
  76 Ti     9.522250    9.555862    7.640878    ( 0.0000,  0.0000,  0.0000)
  77 Ti     4.351376    7.644690    7.640878    ( 0.0000,  0.0000,  0.0000)
  78 O      9.861551    7.644690    7.505914    ( 0.0000,  0.0000,  0.0000)
  79 O      4.690678    9.555862    7.505914    ( 0.0000,  0.0000,  0.0000)
  80 O      7.629303    9.555862    8.393834    ( 0.0000,  0.0000,  0.0000)
  81 O      2.458430    7.644690    8.393834    ( 0.0000,  0.0000,  0.0000)
  82 O      6.244323    7.644690    6.887921    ( 0.0000,  0.0000,  0.0000)
  83 O      1.073450    9.555862    6.887921    ( 0.0000,  0.0000,  0.0000)
  84 O      9.801861    9.570922    9.580010    ( 0.0000,  0.0000,  0.0000)
  85 O      4.643088    7.643656    9.603005    ( 0.0000,  0.0000,  0.0000)
  86 Ti     2.736358    7.645112   10.328640    ( 0.0000,  0.0000,  0.0000)
  87 Ti     7.921409    9.577948   10.387518    ( 0.0000,  0.0000,  0.0000)
  88 Ti     0.494963    9.556653   11.115539    ( 0.0000,  0.0000,  0.0000)
  89 Ti     5.713996    7.622695   11.143840    ( 0.0000,  0.0000,  0.0000)
  90 O      0.913160    7.653558   11.088854    ( 0.0000,  0.0000,  0.0000)
  91 O      6.082705    9.554140   11.085103    ( 0.0000,  0.0000,  0.0000)
  92 O      9.027121    9.530288   11.941988    ( 0.0000,  0.0000,  0.0000)
  93 O      3.851982    7.644632   11.947898    ( 0.0000,  0.0000,  0.0000)
  94 O      7.545801    7.631264   10.456973    ( 0.0000,  0.0000,  0.0000)
  95 O      2.381299    9.555199   10.445915    ( 0.0000,  0.0000,  0.0000)
  96 O      0.909406    9.675167   13.062296    ( 0.0000,  0.0000,  0.0000)
  97 O      6.079480    7.676906   13.198658    ( 0.0000,  0.0000,  0.0000)
  98 Ti     4.102586    7.560743   13.816181    ( 0.0000,  0.0000,  0.0000)
  99 Ti     9.383657    9.547336   13.994239    ( 0.0000,  0.0000,  0.0000)
 100 Ti     1.844061    9.584286   14.574181    ( 0.0000,  0.0000,  0.0000)
 101 Ti     7.069879    7.605424   14.691133    ( 0.0000,  0.0000,  0.0000)
 102 O      2.348688    7.700260   14.597563    ( 0.0000,  0.0000,  0.0000)
 103 O      7.560912    9.555878   14.817047    ( 0.0000,  0.0000,  0.0000)
 104 O      0.214073    9.464008   15.436134    ( 0.0000,  0.0000,  0.0000)
 105 O      5.308587    7.469628   15.612618    ( 0.0000,  0.0000,  0.0000)
 106 O      8.958199    7.631718   13.960071    ( 0.0000,  0.0000,  0.0000)
 107 O      3.858084    9.574796   13.969996    ( 0.0000,  0.0000,  0.0000)
 108 V      5.833125    3.945105   17.277897    ( 0.0000,  0.0000,  0.0000)
 109 V      4.369211    6.795894   17.067387    ( 0.0000,  0.0000,  0.0000)
 110 O      5.395351    2.779170   18.272289    ( 0.0000,  0.0000,  0.0000)
 111 O      4.061189    8.007703   18.049506    ( 0.0000,  0.0000,  0.0000)
 112 O      2.874507    5.988951   16.575929    ( 0.0000,  0.0000,  0.0000)
 113 O      7.496959    3.824833   16.735547    ( 0.0000,  0.0000,  0.0000)
 114 O      5.410702    5.612968   17.877568    ( 0.0000,  0.0000,  0.0000)

Unit cell:
           periodic     x           y           z      points  spacing
  1. axis:    yes   10.341746    0.000000    0.000000    54     0.1915
  2. axis:    yes   -0.000000   11.467000    0.000000    60     0.1911
  3. axis:    no     0.000000    0.000000   23.497201   125     0.1880

  Lengths:  10.341746  11.467000  23.497201
  Angles:   90.000000  90.000000  90.000000

Effective grid spacing dv^(1/3) = 0.1902

                     log10-error:    total        iterations:
           time      wfs    density  energy       fermi  poisson
iter:   1  00:56:37  -2.97   +inf  -955.937704    3             
iter:   2  00:57:46  -3.91  -3.25  -955.934887    2             
iter:   3  00:58:55  -3.44  -3.27  -955.924559    3             
iter:   4  01:00:03  -4.75  -3.48  -955.923864    2             
iter:   5  01:01:12  -4.90  -3.54  -955.923860    2             
iter:   6  01:02:20  -4.32  -3.61  -955.923151    2             
iter:   7  01:03:29  -5.31  -3.76  -955.922262    2             
iter:   8  01:04:38  -5.80  -4.08  -955.922250    1             
iter:   9  01:05:47  -6.04  -4.21  -955.922286    2             
iter:  10  01:06:55  -5.74  -4.25  -955.922226    2             
iter:  11  01:08:04  -6.96  -4.54  -955.922219    2             
iter:  12  01:09:13  -6.92  -4.54  -955.922221    1             
iter:  13  01:10:21  -6.72  -4.55  -955.922221    2             
iter:  14  01:11:30  -7.44  -4.93  -955.922219    1             

Converged after 14 iterations.

Dipole moment: (-17.959524, 4.411118, -1.495857) |e|*Ang

Energy contributions relative to reference atoms: (reference = -1044851.132452)

Kinetic:       +682.726679
Potential:     -872.902938
External:        +0.000000
XC:            -773.430512
Entropy (-ST):   -0.000516
Local:           +7.684809
--------------------------
Free energy:   -955.922477
Extrapolated:  -955.922219

Fermi level: -0.76779

Showing only first 2 kpts
 Kpt  Band  Eigenvalues  Occupancy
  0   458     -1.83154    0.22222
  0   459     -1.82743    0.22222
  0   460      0.08067    0.00005
  0   461      0.22930    0.00001

  1   458     -1.84894    0.44444
  1   459     -1.81649    0.44443
  1   460      0.26934    0.00001
  1   461      0.36979    0.00001



Forces in eV/Ang:
  0 O    -1.89335    0.00818    1.56423
  1 O    -1.91771   -0.00234    1.55218
  2 Ti    3.84282    0.02465    1.94717
  3 Ti    3.85766   -0.02700    1.95993
  4 Ti   -1.97410   -0.02924   -2.01339
  5 Ti   -1.89002    0.01710   -2.02864
  6 O     0.90294    0.01356   -0.19514
  7 O     0.84464    0.07831   -0.17756
  8 O    -0.69150    0.00991   -0.58663
  9 O    -0.67212    0.00711   -0.62992
 10 O    -0.28092   -0.01623   -0.86409
 11 O    -0.23177    0.08883   -0.86150
 12 O    -0.11728   -0.00127    0.04588
 13 O    -0.14595    0.00130    0.04223
 14 Ti    0.05012   -0.01757   -0.08572
 15 Ti    0.06149    0.00322   -0.07639
 16 Ti    0.06610   -0.00956    0.09335
 17 Ti    0.07236    0.00539    0.06486
 18 O     0.08964   -0.02988   -0.10078
 19 O     0.10046   -0.00105   -0.03383
 20 O     0.01003    0.01549    0.06978
 21 O     0.01623    0.00318    0.07293
 22 O    -0.01023    0.01446    0.09248
 23 O     0.02005   -0.00272    0.04966
 24 O    -0.06885   -0.01707    0.02571
 25 O    -0.03539   -0.02444    0.02353
 26 Ti    0.01475    0.07869   -0.10953
 27 Ti    0.06070    0.11158   -0.09355
 28 Ti    0.07672   -0.03969    0.04386
 29 Ti    0.12456   -0.02498    0.04981
 30 O     0.05044    0.00159    0.12426
 31 O     0.02299    0.05790   -0.02082
 32 O     0.02371   -0.03581    0.02487
 33 O     0.04501   -0.01629    0.04070
 34 O    -0.23607   -0.00179    0.14679
 35 O    -0.18942   -0.07616    0.13941
 36 O    -1.91614    0.00622    1.54341
 37 O    -1.90286    0.01066    1.60987
 38 Ti    3.64416   -0.06468    1.77829
 39 Ti    3.87875   -0.02483    1.90690
 40 Ti   -1.83866   -0.01570   -1.60819
 41 Ti   -1.59678   -0.05404   -1.71500
 42 O     0.95198    0.03486   -0.21779
 43 O     0.82065    0.03026   -0.17387
 44 O    -0.77924   -0.01309   -0.74480
 45 O    -0.65122    0.02382   -0.62060
 46 O    -0.32663    0.03898   -0.84549
 47 O    -0.20489    0.03634   -0.90690
 48 O     0.01056   -0.00243    0.07487
 49 O    -0.09315    0.00842    0.02081
 50 Ti   -0.00030   -0.00100    0.01850
 51 Ti   -0.06355   -0.02371    0.01956
 52 Ti   -0.00452    0.02787   -0.02493
 53 Ti    0.00750   -0.06957    0.11564
 54 O     0.15831   -0.02141   -0.09063
 55 O     0.16347    0.04597    0.01944
 56 O     0.00515    0.00024    0.08602
 57 O     0.00699   -0.01173    0.07308
 58 O    -0.01208    0.00149    0.08452
 59 O     0.03135    0.01204    0.13107
 60 O     0.11719    0.00646    0.05678
 61 O     0.02627   -0.00654   -0.11098
 62 Ti   -0.06702    0.08652    0.12303
 63 Ti   -0.06504   -0.07040    0.17656
 64 Ti   -0.07721    0.08823   -0.05054
 65 Ti   -0.11837   -0.04484    0.08335
 66 O     0.05142   -0.03140    0.03035
 67 O     0.02986    0.18616    0.14179
 68 O     0.07603    0.00718    0.06435
 69 O     0.16273   -0.03182   -0.13343
 70 O    -0.07124   -0.03813   -0.16937
 71 O    -0.16664   -0.01660    0.03249
 72 O    -1.90654   -0.00310    1.56312
 73 O    -1.92629   -0.00543    1.63100
 74 Ti    3.55627    0.04225    1.69552
 75 Ti    3.85351    0.04936    1.93172
 76 Ti   -1.95441    0.04191   -2.03714
 77 Ti   -1.54287    0.03061   -1.91397
 78 O     0.96885    0.01371   -0.21924
 79 O     0.84226   -0.09342   -0.16942
 80 O    -0.68081   -0.03294   -0.58424
 81 O    -0.63635   -0.00712   -0.58042
 82 O    -0.33985   -0.02308   -0.86850
 83 O    -0.22589   -0.12423   -0.84841
 84 O    -0.13686   -0.00638    0.01223
 85 O    -0.10141   -0.00785    0.03785
 86 Ti    0.01325   -0.00933   -0.01654
 87 Ti    0.10863   -0.03003   -0.07678
 88 Ti    0.01917    0.02330    0.09467
 89 Ti   -0.06027    0.03754   -0.12182
 90 O     0.12331   -0.03272   -0.05665
 91 O     0.08899   -0.03239   -0.02957
 92 O     0.00066   -0.02270    0.03146
 93 O     0.12262    0.01753    0.01154
 94 O     0.01211    0.02608    0.14049
 95 O     0.02580    0.00667    0.04280
 96 O    -0.00402   -0.06240   -0.06311
 97 O     0.04676   -0.01011   -0.27005
 98 Ti   -0.09568    0.08073    0.18657
 99 Ti    0.13437   -0.04979    0.10873
100 Ti    0.02806    0.00821    0.07954
101 Ti   -0.39813    0.12143   -0.89291
102 O     0.00721   -0.13113    0.21310
103 O    -0.06873   -0.30555    0.35474
104 O     0.15810    0.12551   -0.15597
105 O     0.16956    0.12274   -0.10693
106 O    -0.25426    0.03471    0.28080
107 O    -0.11167   -0.11872    0.18238
108 V     0.02643    0.17717   -0.04944
109 V     0.03084   -0.16769   -0.01695
110 O    -0.03247   -0.02149   -0.01818
111 O    -0.09211    0.00309    0.04760
112 O     0.15576    0.11332    0.13679
113 O    -0.15741   -0.06502   -0.06081
114 O    -0.02960   -0.01346    0.14219

System changes: positions 

Initializing position-dependent things.

Density initialized from wave functions
                                                
                                                
                                                
                                                
                                                
                                                
                      O                         
                                                
                      V O       Ti              
             O    Oi  O         O    O          
                       OVO   O      Ti          
           O   O  O         OTi   O             
               Ti     Oi   O O                  
         O     O    O      Ti     Ti            
             Tii    Ti     OO   O               
             OO   OOO   O Ti   TiOi             
          O Ti   TiOi     O    O     O          
                O      Ti     TiO               
            O   TiO      O  O  O   O Ti         
         Ti     O    O Oi    Ti     O           
         O    OTi    Ti    OTi    O             
             OTi    O O   O     O Ti            
                  O Ti     Oi     O             
             Oi     O    O      Ti              
           O      Ti    Ti     O                
          Ti          O      O                  
               O                                
                                                
                                                
                                                
                                                

Positions:
   0 O      8.476572    1.911173    6.000000    ( 0.0000,  0.0000,  0.0000)
   1 O      3.305699    0.000000    6.000000    ( 0.0000,  0.0000,  0.0000)
   2 Ti     1.412752    0.000000    6.752957    ( 0.0000,  0.0000,  0.0000)
   3 Ti     6.583625    1.911173    6.752957    ( 0.0000,  0.0000,  0.0000)
   4 Ti     9.522250    1.911173    7.640878    ( 0.0000,  0.0000,  0.0000)
   5 Ti     4.351376    0.000000    7.640878    ( 0.0000,  0.0000,  0.0000)
   6 O      9.861551    0.000000    7.505914    ( 0.0000,  0.0000,  0.0000)
   7 O      4.690678    1.911173    7.505914    ( 0.0000,  0.0000,  0.0000)
   8 O      7.629303    1.911173    8.393834    ( 0.0000,  0.0000,  0.0000)
   9 O      2.458430    0.000000    8.393834    ( 0.0000,  0.0000,  0.0000)
  10 O      6.244323    0.000000    6.887921    ( 0.0000,  0.0000,  0.0000)
  11 O      1.073450    1.911173    6.887921    ( 0.0000,  0.0000,  0.0000)
  12 O      9.791307    1.928058    9.585103    ( 0.0000,  0.0000,  0.0000)
  13 O      4.631773    0.005232    9.581206    ( 0.0000,  0.0000,  0.0000)
  14 Ti     2.753003    0.018286   10.383646    ( 0.0000,  0.0000,  0.0000)
  15 Ti     7.926939    1.916713   10.388137    ( 0.0000,  0.0000,  0.0000)
  16 Ti     0.486801    1.930775   11.131136    ( 0.0000,  0.0000,  0.0000)
  17 Ti     5.648459    0.008989   11.135658    ( 0.0000,  0.0000,  0.0000)
  18 O      0.911799    0.016790   11.061411    ( 0.0000,  0.0000,  0.0000)
  19 O      6.085958    1.917535   11.093078    ( 0.0000,  0.0000,  0.0000)
  20 O      9.030565    1.925079   11.959378    ( 0.0000,  0.0000,  0.0000)
  21 O      3.856516    0.005674   11.945466    ( 0.0000,  0.0000,  0.0000)
  22 O      7.556260    0.003942   10.454491    ( 0.0000,  0.0000,  0.0000)
  23 O      2.386998    1.927773   10.448139    ( 0.0000,  0.0000,  0.0000)
  24 O      0.926380    1.919431   13.078139    ( 0.0000,  0.0000,  0.0000)
  25 O      6.096978   11.448278   13.076771    ( 0.0000,  0.0000,  0.0000)
  26 Ti     4.212669   -0.046264   14.023238    ( 0.0000,  0.0000,  0.0000)
  27 Ti     9.400398    1.833953   14.022342    ( 0.0000,  0.0000,  0.0000)
  28 Ti     1.859369    1.918131   14.602979    ( 0.0000,  0.0000,  0.0000)
  29 Ti     7.012770   11.447993   14.605183    ( 0.0000,  0.0000,  0.0000)
  30 O      2.387493    0.005048   14.823493    ( 0.0000,  0.0000,  0.0000)
  31 O      7.564478    1.838253   14.785689    ( 0.0000,  0.0000,  0.0000)
  32 O      0.226218    1.845743   15.454002    ( 0.0000,  0.0000,  0.0000)
  33 O      5.400825   -0.004806   15.462174    ( 0.0000,  0.0000,  0.0000)
  34 O      9.031205   11.436572   13.956295    ( 0.0000,  0.0000,  0.0000)
  35 O      3.824260    1.908053   13.960294    ( 0.0000,  0.0000,  0.0000)
  36 O      8.476572    5.733518    6.000000    ( 0.0000,  0.0000,  0.0000)
  37 O      3.305699    3.822345    6.000000    ( 0.0000,  0.0000,  0.0000)
  38 Ti     1.412752    3.822345    6.752957    ( 0.0000,  0.0000,  0.0000)
  39 Ti     6.583625    5.733518    6.752957    ( 0.0000,  0.0000,  0.0000)
  40 Ti     9.522250    5.733518    7.640878    ( 0.0000,  0.0000,  0.0000)
  41 Ti     4.351376    3.822345    7.640878    ( 0.0000,  0.0000,  0.0000)
  42 O      9.861551    3.822345    7.505914    ( 0.0000,  0.0000,  0.0000)
  43 O      4.690678    5.733518    7.505914    ( 0.0000,  0.0000,  0.0000)
  44 O      7.629303    5.733518    8.393834    ( 0.0000,  0.0000,  0.0000)
  45 O      2.458430    3.822345    8.393834    ( 0.0000,  0.0000,  0.0000)
  46 O      6.244323    3.822345    6.887921    ( 0.0000,  0.0000,  0.0000)
  47 O      1.073450    5.733518    6.887921    ( 0.0000,  0.0000,  0.0000)
  48 O      9.794225    5.747461    9.606530    ( 0.0000,  0.0000,  0.0000)
  49 O      4.636768    3.829976    9.616467    ( 0.0000,  0.0000,  0.0000)
  50 Ti     2.783528    3.829472   10.333273    ( 0.0000,  0.0000,  0.0000)
  51 Ti     8.007799    5.726492   10.351404    ( 0.0000,  0.0000,  0.0000)
  52 Ti     0.533854    5.716219   11.274686    ( 0.0000,  0.0000,  0.0000)
  53 Ti     5.702155    3.847487   11.226561    ( 0.0000,  0.0000,  0.0000)
  54 O      0.913667    3.828208   11.076928    ( 0.0000,  0.0000,  0.0000)
  55 O      6.068439    5.734565   11.116711    ( 0.0000,  0.0000,  0.0000)
  56 O      9.025701    5.696874   11.972323    ( 0.0000,  0.0000,  0.0000)
  57 O      3.848939    3.819574   11.965813    ( 0.0000,  0.0000,  0.0000)
  58 O      7.542798    3.832142   10.461584    ( 0.0000,  0.0000,  0.0000)
  59 O      2.386334    5.737796   10.459841    ( 0.0000,  0.0000,  0.0000)
  60 O      0.908447    5.728394   13.147190    ( 0.0000,  0.0000,  0.0000)
  61 O      6.047123    3.798828   13.235609    ( 0.0000,  0.0000,  0.0000)
  62 Ti     4.207288    3.765983   13.878292    ( 0.0000,  0.0000,  0.0000)
  63 Ti     9.473425    5.748574   13.982843    ( 0.0000,  0.0000,  0.0000)
  64 Ti     1.929908    5.694203   14.978694    ( 0.0000,  0.0000,  0.0000)
  65 Ti     7.235520    3.807481   14.839794    ( 0.0000,  0.0000,  0.0000)
  66 O      2.352134    3.790612   14.805466    ( 0.0000,  0.0000,  0.0000)
  67 O      7.519963    5.769521   14.780395    ( 0.0000,  0.0000,  0.0000)
  68 O      0.184959    5.746041   15.502274    ( 0.0000,  0.0000,  0.0000)
  69 O      5.189287    3.798630   15.619180    ( 0.0000,  0.0000,  0.0000)
  70 O      8.993339    3.813072   14.105216    ( 0.0000,  0.0000,  0.0000)
  71 O      3.833875    5.717456   13.939580    ( 0.0000,  0.0000,  0.0000)
  72 O      8.476572    9.555862    6.000000    ( 0.0000,  0.0000,  0.0000)
  73 O      3.305699    7.644690    6.000000    ( 0.0000,  0.0000,  0.0000)
  74 Ti     1.412752    7.644690    6.752957    ( 0.0000,  0.0000,  0.0000)
  75 Ti     6.583625    9.555862    6.752957    ( 0.0000,  0.0000,  0.0000)
  76 Ti     9.522250    9.555862    7.640878    ( 0.0000,  0.0000,  0.0000)
  77 Ti     4.351376    7.644690    7.640878    ( 0.0000,  0.0000,  0.0000)
  78 O      9.861551    7.644690    7.505914    ( 0.0000,  0.0000,  0.0000)
  79 O      4.690678    9.555862    7.505914    ( 0.0000,  0.0000,  0.0000)
  80 O      7.629303    9.555862    8.393834    ( 0.0000,  0.0000,  0.0000)
  81 O      2.458430    7.644690    8.393834    ( 0.0000,  0.0000,  0.0000)
  82 O      6.244323    7.644690    6.887921    ( 0.0000,  0.0000,  0.0000)
  83 O      1.073450    9.555862    6.887921    ( 0.0000,  0.0000,  0.0000)
  84 O      9.796637    9.570695    9.580293    ( 0.0000,  0.0000,  0.0000)
  85 O      4.639286    7.643374    9.604573    ( 0.0000,  0.0000,  0.0000)
  86 Ti     2.736910    7.644837   10.327954    ( 0.0000,  0.0000,  0.0000)
  87 Ti     7.925161    9.576924   10.384456    ( 0.0000,  0.0000,  0.0000)
  88 Ti     0.496054    9.557615   11.119304    ( 0.0000,  0.0000,  0.0000)
  89 Ti     5.711713    7.624098   11.139542    ( 0.0000,  0.0000,  0.0000)
  90 O      0.917707    7.652202   11.086760    ( 0.0000,  0.0000,  0.0000)
  91 O      6.086149    9.552903   11.083965    ( 0.0000,  0.0000,  0.0000)
  92 O      9.027005    9.529419   11.943284    ( 0.0000,  0.0000,  0.0000)
  93 O      3.856333    7.645244   11.948188    ( 0.0000,  0.0000,  0.0000)
  94 O      7.546222    7.632235   10.462120    ( 0.0000,  0.0000,  0.0000)
  95 O      2.382181    9.555453   10.447462    ( 0.0000,  0.0000,  0.0000)
  96 O      0.908878    9.672904   13.059476    ( 0.0000,  0.0000,  0.0000)
  97 O      6.083201    7.676405   13.192446    ( 0.0000,  0.0000,  0.0000)
  98 Ti     4.098985    7.563676   13.822325    ( 0.0000,  0.0000,  0.0000)
  99 Ti     9.390539    9.546283   13.998660    ( 0.0000,  0.0000,  0.0000)
 100 Ti     1.844206    9.584528   14.577673    ( 0.0000,  0.0000,  0.0000)
 101 Ti     7.053424    7.609615   14.654916    ( 0.0000,  0.0000,  0.0000)
 102 O      2.349249    7.695216   14.605212    ( 0.0000,  0.0000,  0.0000)
 103 O      7.558045    9.543271   14.830423    ( 0.0000,  0.0000,  0.0000)
 104 O      0.219579    9.468575   15.429350    ( 0.0000,  0.0000,  0.0000)
 105 O      5.316114    7.474518   15.608212    ( 0.0000,  0.0000,  0.0000)
 106 O      8.947740    7.632872   13.970881    ( 0.0000,  0.0000,  0.0000)
 107 O      3.854144    9.570332   13.976667    ( 0.0000,  0.0000,  0.0000)
 108 V      5.834566    3.948903   17.277312    ( 0.0000,  0.0000,  0.0000)
 109 V      4.367883    6.790641   17.069041    ( 0.0000,  0.0000,  0.0000)
 110 O      5.394675    2.780021   18.270294    ( 0.0000,  0.0000,  0.0000)
 111 O      4.058523    8.006004   18.049625    ( 0.0000,  0.0000,  0.0000)
 112 O      2.881503    5.993615   16.581515    ( 0.0000,  0.0000,  0.0000)
 113 O      7.490436    3.822739   16.733080    ( 0.0000,  0.0000,  0.0000)
 114 O      5.409461    5.613291   17.882767    ( 0.0000,  0.0000,  0.0000)

Unit cell:
           periodic     x           y           z      points  spacing
  1. axis:    yes   10.341746    0.000000    0.000000    54     0.1915
  2. axis:    yes   -0.000000   11.467000    0.000000    60     0.1911
  3. axis:    no     0.000000    0.000000   23.497201   125     0.1880

  Lengths:  10.341746  11.467000  23.497201
  Angles:   90.000000  90.000000  90.000000

Effective grid spacing dv^(1/3) = 0.1902

                     log10-error:    total        iterations:
           time      wfs    density  energy       fermi  poisson
iter:   1  01:13:05  -2.65   +inf  -956.012880    3             
iter:   2  01:14:14  -3.60  -3.11  -956.011063    2             
iter:   3  01:15:23  -3.27  -3.13  -955.997807    3             
iter:   4  01:16:31  -4.45  -3.37  -955.996315    2             
iter:   5  01:17:39  -4.69  -3.39  -955.996016    2             
iter:   6  01:18:48  -4.43  -3.45  -955.994521    2             
iter:   7  01:19:56  -5.09  -3.78  -955.994123    2             
iter:   8  01:21:05  -5.27  -3.93  -955.994084    2             
iter:   9  01:22:13  -5.41  -4.08  -955.994057    2             
iter:  10  01:23:22  -5.94  -4.15  -955.993967    2             
iter:  11  01:24:30  -6.67  -4.36  -955.993972    1             
iter:  12  01:25:38  -7.34  -4.46  -955.993969    1             
iter:  13  01:26:47  -6.70  -4.52  -955.993972    1             
iter:  14  01:27:55  -7.16  -4.70  -955.993970    1             
iter:  15  01:29:04  -7.97  -4.81  -955.993969    1             

Converged after 15 iterations.

Dipole moment: (-18.089655, 4.397055, -1.531100) |e|*Ang

Energy contributions relative to reference atoms: (reference = -1044851.132452)

Kinetic:       +684.340069
Potential:     -874.253220
External:        +0.000000
XC:            -773.764924
Entropy (-ST):   -0.000508
Local:           +7.684361
--------------------------
Free energy:   -955.994222
Extrapolated:  -955.993969

Fermi level: -0.77711

Showing only first 2 kpts
 Kpt  Band  Eigenvalues  Occupancy
  0   458     -1.84293    0.22222
  0   459     -1.83886    0.22222
  0   460      0.07272    0.00005
  0   461      0.21996    0.00001

  1   458     -1.86032    0.44444
  1   459     -1.82801    0.44443
  1   460      0.26181    0.00001
  1   461      0.36071    0.00001



Forces in eV/Ang:
  0 O    -1.89257    0.00791    1.56562
  1 O    -1.91719   -0.00305    1.55415
  2 Ti    3.83763    0.02735    1.93948
  3 Ti    3.85241   -0.02420    1.95372
  4 Ti   -1.96676   -0.02788   -2.00074
  5 Ti   -1.88423    0.02298   -2.01796
  6 O     0.90393    0.01464   -0.19517
  7 O     0.84723    0.07169   -0.17889
  8 O    -0.70578    0.00979   -0.60254
  9 O    -0.68849    0.00691   -0.64801
 10 O    -0.28138   -0.01691   -0.86325
 11 O    -0.23351    0.08252   -0.86109
 12 O    -0.04986   -0.00201    0.06119
 13 O    -0.07910    0.00045    0.05289
 14 Ti    0.06949   -0.01534   -0.06145
 15 Ti    0.06958    0.00542   -0.03808
 16 Ti    0.03373    0.00380    0.04679
 17 Ti    0.07027   -0.01679    0.05127
 18 O     0.03230   -0.01599   -0.06873
 19 O     0.04133   -0.01054   -0.01952
 20 O     0.02594    0.00658    0.03705
 21 O     0.01369   -0.00068    0.06794
 22 O    -0.00175    0.01207    0.08036
 23 O     0.02287   -0.02940    0.05050
 24 O    -0.02243   -0.02019    0.03485
 25 O    -0.01911   -0.02327    0.03156
 26 Ti    0.11402    0.03721    0.00540
 27 Ti    0.04106    0.08666   -0.03739
 28 Ti   -0.02324   -0.03250    0.05581
 29 Ti    0.03314   -0.16554    0.07658
 30 O     0.01491   -0.06039    0.10273
 31 O     0.00101    0.06074   -0.00926
 32 O     0.03469   -0.02887   -0.02075
 33 O     0.02273   -0.00005   -0.06965
 34 O    -0.18082   -0.05259    0.13527
 35 O    -0.11505   -0.04227    0.10627
 36 O    -1.91103    0.00649    1.54777
 37 O    -1.90377    0.01085    1.60669
 38 Ti    3.65528   -0.06398    1.78362
 39 Ti    3.87535   -0.02858    1.90430
 40 Ti   -1.83617   -0.01679   -1.58900
 41 Ti   -1.60545   -0.05606   -1.68647
 42 O     0.94788    0.03667   -0.21549
 43 O     0.82294    0.04091   -0.17320
 44 O    -0.77245   -0.01061   -0.74183
 45 O    -0.66504    0.02604   -0.63611
 46 O    -0.32255    0.03923   -0.84983
 47 O    -0.20747    0.04164   -0.90763
 48 O     0.01550   -0.00406    0.02522
 49 O    -0.04631    0.00849    0.02409
 50 Ti    0.02938    0.00634    0.01650
 51 Ti   -0.03604   -0.00821    0.09709
 52 Ti   -0.04050    0.02069    0.02389
 53 Ti    0.01167   -0.03033    0.10949
 54 O     0.08598   -0.02672   -0.04830
 55 O     0.11781    0.01025    0.01494
 56 O     0.03255    0.00647    0.05417
 57 O     0.00631   -0.02180    0.09112
 58 O     0.00405   -0.01136    0.06594
 59 O     0.05416    0.01351    0.11036
 60 O     0.08494    0.00537    0.07703
 61 O    -0.01817   -0.01193   -0.07341
 62 Ti   -0.05441    0.09886    0.04282
 63 Ti   -0.22425    0.03919    0.10075
 64 Ti   -0.00770    0.03967   -0.03555
 65 Ti   -0.07674    0.11407   -0.05567
 66 O     0.03573    0.00214    0.05109
 67 O     0.05071   -0.15265    0.07633
 68 O     0.06888   -0.00382    0.13827
 69 O     0.13291   -0.01446   -0.11324
 70 O    -0.06361   -0.00906   -0.09788
 71 O    -0.11422   -0.02096    0.02296
 72 O    -1.90917   -0.00317    1.56153
 73 O    -1.92054   -0.00496    1.63520
 74 Ti    3.55343    0.03880    1.69450
 75 Ti    3.85805    0.05005    1.92608
 76 Ti   -1.95039    0.04223   -2.03118
 77 Ti   -1.55132    0.02703   -1.93020
 78 O     0.96866    0.01043   -0.21878
 79 O     0.84125   -0.09729   -0.16544
 80 O    -0.70203   -0.03308   -0.61495
 81 O    -0.64175   -0.00837   -0.59715
 82 O    -0.34119   -0.02240   -0.86937
 83 O    -0.22514   -0.12322   -0.84633
 84 O    -0.05534   -0.00757    0.04134
 85 O    -0.07235   -0.00797   -0.03967
 86 Ti    0.01278   -0.01782    0.02193
 87 Ti    0.09263   -0.04083   -0.01657
 88 Ti   -0.02304    0.00646    0.02308
 89 Ti   -0.04063    0.02880   -0.12437
 90 O     0.06705    0.00754   -0.03230
 91 O     0.03704    0.00690   -0.02007
 92 O     0.03092   -0.01608    0.02890
 93 O     0.09233    0.01830    0.06323
 94 O     0.04430    0.01731    0.10355
 95 O     0.02739    0.00172    0.04097
 96 O     0.05721   -0.06179    0.04838
 97 O    -0.35783    0.02120   -0.88539
 98 Ti   -0.08958    0.07377    0.19122
 99 Ti   -0.19056   -0.11914    0.01358
100 Ti    0.17843    0.04030   -0.05045
101 Ti    0.11958    0.12137    0.04354
102 O    -0.04562   -0.05346    0.20226
103 O    -0.01461   -0.01163    0.19770
104 O     0.13174    0.10044    0.08409
105 O    -0.06767    0.02492   -0.07585
106 O     0.00091    0.04016    0.12314
107 O    -0.09686   -0.07700    0.15654
108 V    -0.16119    0.10282    0.08847
109 V     0.23344    0.16496   -0.03969
110 O     0.00130    0.04953   -0.07584
111 O    -0.08510   -0.06263    0.00124
112 O    -0.05096   -0.00530    0.00922
113 O     0.01591   -0.06520   -0.00297
114 O     0.02210   -0.10160    0.13140

System changes: positions 

Initializing position-dependent things.

Density initialized from wave functions
                                                
                                                
                                                
                                                
                                                
                                                
                      O                         
                                                
                      V O       Ti              
              O   Oi  O         O    O          
                       OVO   O      Ti          
           O   O  O         OTi   O             
               Ti     Oi   O O                  
         O     O    O      Ti     Ti            
             Tii    Ti     OO   O               
             OO   OOO   O Ti   TiOi             
          O Ti   TiOi     O    O     O          
                O      Ti     TiO               
            O   TiO      O  O  O   O Ti         
         Ti     O    O Oi    Ti     O           
         O    OTi    Ti    OTi    O             
             OTi    O O   O     O Ti            
                  O Ti     Oi     O             
             Oi     O    O      Ti              
           O      Ti    Ti     O                
          Ti          O      O                  
               O                                
                                                
                                                
                                                
                                                

Positions:
   0 O      8.476572    1.911173    6.000000    ( 0.0000,  0.0000,  0.0000)
   1 O      3.305699    0.000000    6.000000    ( 0.0000,  0.0000,  0.0000)
   2 Ti     1.412752    0.000000    6.752957    ( 0.0000,  0.0000,  0.0000)
   3 Ti     6.583625    1.911173    6.752957    ( 0.0000,  0.0000,  0.0000)
   4 Ti     9.522250    1.911173    7.640878    ( 0.0000,  0.0000,  0.0000)
   5 Ti     4.351376    0.000000    7.640878    ( 0.0000,  0.0000,  0.0000)
   6 O      9.861551    0.000000    7.505914    ( 0.0000,  0.0000,  0.0000)
   7 O      4.690678    1.911173    7.505914    ( 0.0000,  0.0000,  0.0000)
   8 O      7.629303    1.911173    8.393834    ( 0.0000,  0.0000,  0.0000)
   9 O      2.458430    0.000000    8.393834    ( 0.0000,  0.0000,  0.0000)
  10 O      6.244323    0.000000    6.887921    ( 0.0000,  0.0000,  0.0000)
  11 O      1.073450    1.911173    6.887921    ( 0.0000,  0.0000,  0.0000)
  12 O      9.787920    1.928001    9.586991    ( 0.0000,  0.0000,  0.0000)
  13 O      4.627345    0.005270    9.582931    ( 0.0000,  0.0000,  0.0000)
  14 Ti     2.755177    0.017630   10.380863    ( 0.0000,  0.0000,  0.0000)
  15 Ti     7.929326    1.916858   10.385859    ( 0.0000,  0.0000,  0.0000)
  16 Ti     0.488860    1.930566   11.133950    ( 0.0000,  0.0000,  0.0000)
  17 Ti     5.651056    0.008831   11.137820    ( 0.0000,  0.0000,  0.0000)
  18 O      0.914244    0.015855   11.058125    ( 0.0000,  0.0000,  0.0000)
  19 O      6.088830    1.917393   11.092045    ( 0.0000,  0.0000,  0.0000)
  20 O      9.031178    1.925530   11.961535    ( 0.0000,  0.0000,  0.0000)
  21 O      3.857121    0.005725   11.948145    ( 0.0000,  0.0000,  0.0000)
  22 O      7.556057    0.004397   10.457782    ( 0.0000,  0.0000,  0.0000)
  23 O      2.387799    1.927317   10.450019    ( 0.0000,  0.0000,  0.0000)
  24 O      0.924447    1.918754   13.079155    ( 0.0000,  0.0000,  0.0000)
  25 O      6.095982   11.447313   13.077925    ( 0.0000,  0.0000,  0.0000)
  26 Ti     4.214376   -0.043729   14.020672    ( 0.0000,  0.0000,  0.0000)
  27 Ti     9.402138    1.837675   14.019700    ( 0.0000,  0.0000,  0.0000)
  28 Ti     1.861002    1.916705   14.604863    ( 0.0000,  0.0000,  0.0000)
  29 Ti     7.016198   11.445762   14.607300    ( 0.0000,  0.0000,  0.0000)
  30 O      2.388947    0.004264   14.827778    ( 0.0000,  0.0000,  0.0000)
  31 O      7.564979    1.840328   14.785035    ( 0.0000,  0.0000,  0.0000)
  32 O      0.227162    1.844512   15.454344    ( 0.0000,  0.0000,  0.0000)
  33 O      5.402210   -0.005247   15.462288    ( 0.0000,  0.0000,  0.0000)
  34 O      9.023203   11.435607   13.961618    ( 0.0000,  0.0000,  0.0000)
  35 O      3.818377    1.905757   13.965046    ( 0.0000,  0.0000,  0.0000)
  36 O      8.476572    5.733518    6.000000    ( 0.0000,  0.0000,  0.0000)
  37 O      3.305699    3.822345    6.000000    ( 0.0000,  0.0000,  0.0000)
  38 Ti     1.412752    3.822345    6.752957    ( 0.0000,  0.0000,  0.0000)
  39 Ti     6.583625    5.733518    6.752957    ( 0.0000,  0.0000,  0.0000)
  40 Ti     9.522250    5.733518    7.640878    ( 0.0000,  0.0000,  0.0000)
  41 Ti     4.351376    3.822345    7.640878    ( 0.0000,  0.0000,  0.0000)
  42 O      9.861551    3.822345    7.505914    ( 0.0000,  0.0000,  0.0000)
  43 O      4.690678    5.733518    7.505914    ( 0.0000,  0.0000,  0.0000)
  44 O      7.629303    5.733518    8.393834    ( 0.0000,  0.0000,  0.0000)
  45 O      2.458430    3.822345    8.393834    ( 0.0000,  0.0000,  0.0000)
  46 O      6.244323    3.822345    6.887921    ( 0.0000,  0.0000,  0.0000)
  47 O      1.073450    5.733518    6.887921    ( 0.0000,  0.0000,  0.0000)
  48 O      9.794689    5.747346    9.608671    ( 0.0000,  0.0000,  0.0000)
  49 O      4.634004    3.830292    9.617351    ( 0.0000,  0.0000,  0.0000)
  50 Ti     2.783960    3.829536   10.333909    ( 0.0000,  0.0000,  0.0000)
  51 Ti     8.005685    5.725837   10.353092    ( 0.0000,  0.0000,  0.0000)
  52 Ti     0.533379    5.717128   11.274500    ( 0.0000,  0.0000,  0.0000)
  53 Ti     5.702488    3.845477   11.230701    ( 0.0000,  0.0000,  0.0000)
  54 O      0.918464    3.827398   11.074192    ( 0.0000,  0.0000,  0.0000)
  55 O      6.073921    5.735606   11.117346    ( 0.0000,  0.0000,  0.0000)
  56 O      9.026285    5.697006   11.975314    ( 0.0000,  0.0000,  0.0000)
  57 O      3.849205    3.818993   11.968860    ( 0.0000,  0.0000,  0.0000)
  58 O      7.542611    3.832039   10.464497    ( 0.0000,  0.0000,  0.0000)
  59 O      2.387812    5.738228   10.464474    ( 0.0000,  0.0000,  0.0000)
  60 O      0.912073    5.728648   13.149595    ( 0.0000,  0.0000,  0.0000)
  61 O      6.047500    3.798549   13.232074    ( 0.0000,  0.0000,  0.0000)
  62 Ti     4.204720    3.769244   13.881580    ( 0.0000,  0.0000,  0.0000)
  63 Ti     9.469394    5.747098   13.988429    ( 0.0000,  0.0000,  0.0000)
  64 Ti     1.927862    5.696715   14.976876    ( 0.0000,  0.0000,  0.0000)
  65 Ti     7.231802    3.807392   14.840877    ( 0.0000,  0.0000,  0.0000)
  66 O      2.353872    3.789891   14.806894    ( 0.0000,  0.0000,  0.0000)
  67 O      7.521223    5.772446   14.784776    ( 0.0000,  0.0000,  0.0000)
  68 O      0.187334    5.746184   15.505540    ( 0.0000,  0.0000,  0.0000)
  69 O      5.194859    3.797899   15.614318    ( 0.0000,  0.0000,  0.0000)
  70 O      8.990824    3.812249   14.099924    ( 0.0000,  0.0000,  0.0000)
  71 O      3.828522    5.716803   13.940722    ( 0.0000,  0.0000,  0.0000)
  72 O      8.476572    9.555862    6.000000    ( 0.0000,  0.0000,  0.0000)
  73 O      3.305699    7.644690    6.000000    ( 0.0000,  0.0000,  0.0000)
  74 Ti     1.412752    7.644690    6.752957    ( 0.0000,  0.0000,  0.0000)
  75 Ti     6.583625    9.555862    6.752957    ( 0.0000,  0.0000,  0.0000)
  76 Ti     9.522250    9.555862    7.640878    ( 0.0000,  0.0000,  0.0000)
  77 Ti     4.351376    7.644690    7.640878    ( 0.0000,  0.0000,  0.0000)
  78 O      9.861551    7.644690    7.505914    ( 0.0000,  0.0000,  0.0000)
  79 O      4.690678    9.555862    7.505914    ( 0.0000,  0.0000,  0.0000)
  80 O      7.629303    9.555862    8.393834    ( 0.0000,  0.0000,  0.0000)
  81 O      2.458430    7.644690    8.393834    ( 0.0000,  0.0000,  0.0000)
  82 O      6.244323    7.644690    6.887921    ( 0.0000,  0.0000,  0.0000)
  83 O      1.073450    9.555862    6.887921    ( 0.0000,  0.0000,  0.0000)
  84 O      9.792706    9.570434    9.581131    ( 0.0000,  0.0000,  0.0000)
  85 O      4.635846    7.643077    9.604737    ( 0.0000,  0.0000,  0.0000)
  86 Ti     2.737489    7.644394   10.327971    ( 0.0000,  0.0000,  0.0000)
  87 Ti     7.928754    9.575651   10.382376    ( 0.0000,  0.0000,  0.0000)
  88 Ti     0.496439    9.558314   11.121909    ( 0.0000,  0.0000,  0.0000)
  89 Ti     5.709687    7.625404   11.135005    ( 0.0000,  0.0000,  0.0000)
  90 O      0.921391    7.651537   11.085033    ( 0.0000,  0.0000,  0.0000)
  91 O      6.088782    9.552361   11.082947    ( 0.0000,  0.0000,  0.0000)
  92 O      9.027450    9.528630   11.944617    ( 0.0000,  0.0000,  0.0000)
  93 O      3.860290    7.645897   11.949476    ( 0.0000,  0.0000,  0.0000)
  94 O      7.547287    7.633087   10.466804    ( 0.0000,  0.0000,  0.0000)
  95 O      2.383130    9.555623   10.449048    ( 0.0000,  0.0000,  0.0000)
  96 O      0.909455    9.670543   13.058607    ( 0.0000,  0.0000,  0.0000)
  97 O      6.079547    7.676468   13.174521    ( 0.0000,  0.0000,  0.0000)
  98 Ti     4.095308    7.566615   13.828758    ( 0.0000,  0.0000,  0.0000)
  99 Ti     9.391744    9.543947   14.001517    ( 0.0000,  0.0000,  0.0000)
 100 Ti     1.847147    9.585398   14.578898    ( 0.0000,  0.0000,  0.0000)
 101 Ti     7.045935    7.613974   14.634575    ( 0.0000,  0.0000,  0.0000)
 102 O      2.348856    7.691396   14.613006    ( 0.0000,  0.0000,  0.0000)
 103 O      7.556034    9.535538   14.841467    ( 0.0000,  0.0000,  0.0000)
 104 O      0.224801    9.472876   15.426735    ( 0.0000,  0.0000,  0.0000)
 105 O      5.319603    7.477809   15.604114    ( 0.0000,  0.0000,  0.0000)
 106 O      8.941547    7.634170   13.979243    ( 0.0000,  0.0000,  0.0000)
 107 O      3.850320    9.566440   13.983165    ( 0.0000,  0.0000,  0.0000)
 108 V      5.832502    3.951025   17.279571    ( 0.0000,  0.0000,  0.0000)
 109 V      4.370050    6.791738   17.070689    ( 0.0000,  0.0000,  0.0000)
 110 O      5.394703    2.782550   18.266870    ( 0.0000,  0.0000,  0.0000)
 111 O      4.055971    8.002660   18.048595    ( 0.0000,  0.0000,  0.0000)
 112 O      2.885024    5.996282   16.584985    ( 0.0000,  0.0000,  0.0000)
 113 O      7.486843    3.820583   16.731580    ( 0.0000,  0.0000,  0.0000)
 114 O      5.409140    5.612040   17.888013    ( 0.0000,  0.0000,  0.0000)

Unit cell:
           periodic     x           y           z      points  spacing
  1. axis:    yes   10.341746    0.000000    0.000000    54     0.1915
  2. axis:    yes   -0.000000   11.467000    0.000000    60     0.1911
  3. axis:    no     0.000000    0.000000   23.497201   125     0.1880

  Lengths:  10.341746  11.467000  23.497201
  Angles:   90.000000  90.000000  90.000000

Effective grid spacing dv^(1/3) = 0.1902

                     log10-error:    total        iterations:
           time      wfs    density  energy       fermi  poisson
iter:   1  01:30:39  -2.97   +inf  -956.038852    2             
iter:   2  01:31:47  -3.86  -3.29  -956.039222    2             
iter:   3  01:32:56  -3.84  -3.30  -956.034352    2             
iter:   4  01:34:04  -4.58  -3.54  -956.034534    1             
iter:   5  01:35:13  -4.75  -3.56  -956.034097    2             
iter:   6  01:36:21  -4.88  -3.65  -956.033728    2             
iter:   7  01:37:30  -5.60  -3.89  -956.033590    2             
iter:   8  01:38:38  -5.88  -4.07  -956.033506    2             
iter:   9  01:39:47  -6.20  -4.23  -956.033518    2             
iter:  10  01:40:55  -5.88  -4.27  -956.033483    2             
iter:  11  01:42:03  -6.88  -4.56  -956.033480    1             
iter:  12  01:43:12  -7.27  -4.59  -956.033478    1             
iter:  13  01:44:20  -6.93  -4.63  -956.033479    2             
iter:  14  01:45:29  -7.26  -4.82  -956.033477    1             
iter:  15  01:46:37  -8.05  -4.92  -956.033477    1             

Converged after 15 iterations.

Dipole moment: (-18.216139, 4.798727, -1.520739) |e|*Ang

Energy contributions relative to reference atoms: (reference = -1044851.132452)

Kinetic:       +684.926967
Potential:     -874.746815
External:        +0.000000
XC:            -773.900431
Entropy (-ST):   -0.000500
Local:           +7.687052
--------------------------
Free energy:   -956.033726
Extrapolated:  -956.033477

Fermi level: -0.77577

Showing only first 2 kpts
 Kpt  Band  Eigenvalues  Occupancy
  0   458     -1.84346    0.22222
  0   459     -1.84036    0.22222
  0   460      0.07628    0.00004
  0   461      0.22131    0.00001

  1   458     -1.86078    0.44444
  1   459     -1.82924    0.44443
  1   460      0.26574    0.00001
  1   461      0.36201    0.00001



Forces in eV/Ang:
  0 O    -1.89021    0.00729    1.56834
  1 O    -1.91654   -0.00333    1.55654
  2 Ti    3.83523    0.02810    1.93781
  3 Ti    3.84628   -0.01997    1.95349
  4 Ti   -1.96073   -0.02426   -1.98731
  5 Ti   -1.87890    0.02548   -2.00269
  6 O     0.90443    0.01528   -0.19229
  7 O     0.85065    0.06502   -0.17918
  8 O    -0.71533    0.00915   -0.61466
  9 O    -0.70262    0.00685   -0.66765
 10 O    -0.28131   -0.01672   -0.86229
 11 O    -0.23593    0.07637   -0.86012
 12 O    -0.00464   -0.00225    0.05448
 13 O    -0.02644    0.00027    0.05064
 14 Ti    0.07578   -0.01644   -0.02583
 15 Ti    0.06019    0.00593   -0.00599
 16 Ti    0.02337    0.00342    0.01401
 17 Ti    0.05580   -0.03334    0.02846
 18 O    -0.01351   -0.00831   -0.04326
 19 O    -0.00000   -0.01494   -0.00797
 20 O     0.03654   -0.00213    0.02379
 21 O     0.01782   -0.00685    0.06748
 22 O     0.01357    0.00542    0.07250
 23 O     0.02703   -0.03969    0.05183
 24 O     0.00351   -0.02337    0.03692
 25 O     0.00540   -0.03246    0.05749
 26 Ti    0.11967    0.03204    0.04464
 27 Ti   -0.00379    0.05282   -0.00060
 28 Ti   -0.05424   -0.02549    0.05252
 29 Ti   -0.00469   -0.14332    0.05669
 30 O     0.00724   -0.07886    0.08272
 31 O    -0.01693    0.03338   -0.00942
 32 O     0.01826   -0.02289   -0.03218
 33 O     0.00797    0.00213   -0.08606
 34 O    -0.14031   -0.09231    0.12247
 35 O    -0.05100   -0.03185    0.08454
 36 O    -1.90647    0.00651    1.54999
 37 O    -1.90497    0.01044    1.60440
 38 Ti    3.66428   -0.06032    1.79194
 39 Ti    3.87407   -0.03037    1.91067
 40 Ti   -1.83905   -0.01685   -1.56792
 41 Ti   -1.61119   -0.05373   -1.65771
 42 O     0.94510    0.03382   -0.21240
 43 O     0.82564    0.04479   -0.17377
 44 O    -0.76485   -0.00891   -0.73347
 45 O    -0.67679    0.02741   -0.64689
 46 O    -0.31914    0.03566   -0.85362
 47 O    -0.20938    0.04321   -0.90840
 48 O     0.01599   -0.00562    0.00298
 49 O    -0.01405    0.00849    0.02729
 50 Ti    0.05078    0.00957    0.01321
 51 Ti   -0.02801    0.00346    0.11732
 52 Ti   -0.03689    0.01245    0.05933
 53 Ti    0.01579    0.00005    0.09103
 54 O     0.02684   -0.01987   -0.01426
 55 O     0.08880   -0.03517   -0.00494
 56 O     0.04991    0.01611    0.06009
 57 O     0.00292   -0.02947    0.08884
 58 O     0.02242   -0.01936    0.05446
 59 O     0.06574    0.00708    0.09903
 60 O     0.02268    0.00878    0.07951
 61 O    -0.03361   -0.00896   -0.04990
 62 Ti   -0.05998    0.09695    0.00093
 63 Ti   -0.19915    0.04175    0.06650
 64 Ti    0.03404    0.00186   -0.01250
 65 Ti   -0.07031    0.12270   -0.07920
 66 O     0.02200    0.00399    0.06357
 67 O     0.04665   -0.21164    0.03591
 68 O     0.00443   -0.00952    0.14345
 69 O     0.10776    0.00180   -0.06799
 70 O    -0.03967    0.02344   -0.05621
 71 O    -0.07148   -0.02453    0.01805
 72 O    -1.90840   -0.00275    1.56230
 73 O    -1.92033   -0.00432    1.63516
 74 Ti    3.55818    0.03434    1.70063
 75 Ti    3.85734    0.04741    1.92661
 76 Ti   -1.94776    0.03927   -2.02906
 77 Ti   -1.56071    0.02263   -1.93413
 78 O     0.96726    0.01200   -0.21618
 79 O     0.84303   -0.09440   -0.16346
 80 O    -0.71563   -0.03219   -0.63473
 81 O    -0.65384   -0.00957   -0.61511
 82 O    -0.33988   -0.01879   -0.87506
 83 O    -0.22643   -0.11866   -0.84390
 84 O    -0.00211   -0.00865    0.04713
 85 O    -0.06764   -0.00796   -0.10568
 86 Ti    0.02388   -0.01836    0.05848
 87 Ti    0.04638   -0.04531    0.01763
 88 Ti   -0.01254    0.00545   -0.00635
 89 Ti   -0.01967    0.02219   -0.07971
 90 O     0.01417    0.02546   -0.01010
 91 O     0.00945    0.04913   -0.03098
 92 O     0.04784   -0.01472    0.05421
 93 O     0.02028    0.01965    0.06980
 94 O     0.08443    0.01356    0.06595
 95 O     0.02475   -0.00035    0.04088
 96 O     0.06703   -0.06242    0.08476
 97 O    -0.36849    0.02849   -0.80119
 98 Ti   -0.06228    0.05434    0.09376
 99 Ti   -0.22503   -0.07968   -0.00901
100 Ti    0.19816    0.05600   -0.10553
101 Ti    0.22657    0.07515    0.28908
102 O    -0.06971    0.00101    0.18703
103 O    -0.01256    0.08703    0.11055
104 O     0.06673    0.08300    0.16477
105 O    -0.12805   -0.00397   -0.08620
106 O     0.09716    0.03231    0.05428
107 O    -0.07069   -0.03589    0.14902
108 V    -0.08872    0.20154   -0.08758
109 V     0.26195    0.03042   -0.19006
110 O    -0.05917   -0.08375    0.05157
111 O    -0.10332    0.08771    0.11373
112 O    -0.05089   -0.01365   -0.02054
113 O     0.04075   -0.05142    0.04602
114 O     0.01891   -0.08207    0.11893

System changes: positions 

Initializing position-dependent things.

Density initialized from wave functions
                                                
                                                
                                                
                                                
                                                
                                                
                      O                         
                                                
                      V O       Ti              
              O   Oi  O         O    O          
                       OVO   O      Ti          
           O   O  O         OTi   O             
               Ti     Oi   O O                  
         O     O    O      Ti     Ti            
             Tii    Ti     OO   O               
             OO   OOO   O Ti   TiOi             
          O Ti   TiOi     O    O     O          
                O      Ti     TiO               
            O   TiO      O  O  O   O Ti         
         Ti     O    O Oi    Ti     O           
         O    OTi    Ti    OTi    O             
             OTi    O O   O     O Ti            
                  O Ti     Oi     O             
             Oi     O    O      Ti              
           O      Ti    Ti     O                
          Ti          O      O                  
               O                                
                                                
                                                
                                                
                                                

Positions:
   0 O      8.476572    1.911173    6.000000    ( 0.0000,  0.0000,  0.0000)
   1 O      3.305699    0.000000    6.000000    ( 0.0000,  0.0000,  0.0000)
   2 Ti     1.412752    0.000000    6.752957    ( 0.0000,  0.0000,  0.0000)
   3 Ti     6.583625    1.911173    6.752957    ( 0.0000,  0.0000,  0.0000)
   4 Ti     9.522250    1.911173    7.640878    ( 0.0000,  0.0000,  0.0000)
   5 Ti     4.351376    0.000000    7.640878    ( 0.0000,  0.0000,  0.0000)
   6 O      9.861551    0.000000    7.505914    ( 0.0000,  0.0000,  0.0000)
   7 O      4.690678    1.911173    7.505914    ( 0.0000,  0.0000,  0.0000)
[...]
                                               
                                               
                                               
                                               

Positions:
   0 O      8.476572    1.911173    6.000000    ( 0.0000,  0.0000,  0.0000)
   1 O      3.305699    0.000000    6.000000    ( 0.0000,  0.0000,  0.0000)
   2 Ti     1.412752    0.000000    6.752957    ( 0.0000,  0.0000,  0.0000)
   3 Ti     6.583625    1.911173    6.752957    ( 0.0000,  0.0000,  0.0000)
   4 Ti     9.522250    1.911173    7.640878    ( 0.0000,  0.0000,  0.0000)
   5 Ti     4.351376    0.000000    7.640878    ( 0.0000,  0.0000,  0.0000)
   6 O      9.861551    0.000000    7.505914    ( 0.0000,  0.0000,  0.0000)
   7 O      4.690678    1.911173    7.505914    ( 0.0000,  0.0000,  0.0000)
   8 O      7.629303    1.911173    8.393834    ( 0.0000,  0.0000,  0.0000)
   9 O      2.458430    0.000000    8.393834    ( 0.0000,  0.0000,  0.0000)
  10 O      6.244323    0.000000    6.887921    ( 0.0000,  0.0000,  0.0000)
  11 O      1.073450    1.911173    6.887921    ( 0.0000,  0.0000,  0.0000)
  12 O      9.796959    1.917711    9.605907    ( 0.0000,  0.0000,  0.0000)
  13 O      4.629167   -0.004229    9.606200    ( 0.0000,  0.0000,  0.0000)
  14 Ti     2.781484   -0.001520   10.402399    ( 0.0000,  0.0000,  0.0000)
  15 Ti     7.956086    1.897866   10.400699    ( 0.0000,  0.0000,  0.0000)
  16 Ti     0.507361    1.922033   11.160956    ( 0.0000,  0.0000,  0.0000)
  17 Ti     5.661779   -0.008503   11.168533    ( 0.0000,  0.0000,  0.0000)
  18 O      0.919832    0.000762   11.074196    ( 0.0000,  0.0000,  0.0000)
  19 O      6.100418    1.901438   11.100937    ( 0.0000,  0.0000,  0.0000)
  20 O      9.047998    1.892472   11.992368    ( 0.0000,  0.0000,  0.0000)
  21 O      3.870820   -0.002651   11.989812    ( 0.0000,  0.0000,  0.0000)
  22 O      7.580237   -0.005929   10.503701    ( 0.0000,  0.0000,  0.0000)
  23 O      2.401798    1.912033   10.489527    ( 0.0000,  0.0000,  0.0000)
  24 O      0.928055    1.891089   13.118631    ( 0.0000,  0.0000,  0.0000)
  25 O      6.092053   11.404827   13.128416    ( 0.0000,  0.0000,  0.0000)
  26 Ti     4.227121   -0.007580   14.083138    ( 0.0000,  0.0000,  0.0000)
  27 Ti     9.389295    1.846882   14.047258    ( 0.0000,  0.0000,  0.0000)
  28 Ti     1.848085    1.902342   14.654484    ( 0.0000,  0.0000,  0.0000)
  29 Ti     7.017973   11.423335   14.654466    ( 0.0000,  0.0000,  0.0000)
  30 O      2.381004    0.000077   14.871464    ( 0.0000,  0.0000,  0.0000)
  31 O      7.536699    1.849272   14.771632    ( 0.0000,  0.0000,  0.0000)
  32 O      0.209326    1.867766   15.488791    ( 0.0000,  0.0000,  0.0000)
  33 O      5.406754    0.006762   15.520515    ( 0.0000,  0.0000,  0.0000)
  34 O      9.008669   11.419297   14.094523    ( 0.0000,  0.0000,  0.0000)
  35 O      3.823334    1.900229   14.080474    ( 0.0000,  0.0000,  0.0000)
  36 O      8.476572    5.733518    6.000000    ( 0.0000,  0.0000,  0.0000)
  37 O      3.305699    3.822345    6.000000    ( 0.0000,  0.0000,  0.0000)
  38 Ti     1.412752    3.822345    6.752957    ( 0.0000,  0.0000,  0.0000)
  39 Ti     6.583625    5.733518    6.752957    ( 0.0000,  0.0000,  0.0000)
  40 Ti     9.522250    5.733518    7.640878    ( 0.0000,  0.0000,  0.0000)
  41 Ti     4.351376    3.822345    7.640878    ( 0.0000,  0.0000,  0.0000)
  42 O      9.861551    3.822345    7.505914    ( 0.0000,  0.0000,  0.0000)
  43 O      4.690678    5.733518    7.505914    ( 0.0000,  0.0000,  0.0000)
  44 O      7.629303    5.733518    8.393834    ( 0.0000,  0.0000,  0.0000)
  45 O      2.458430    3.822345    8.393834    ( 0.0000,  0.0000,  0.0000)
  46 O      6.244323    3.822345    6.887921    ( 0.0000,  0.0000,  0.0000)
  47 O      1.073450    5.733518    6.887921    ( 0.0000,  0.0000,  0.0000)
  48 O      9.801618    5.729080    9.627663    ( 0.0000,  0.0000,  0.0000)
  49 O      4.632851    3.823324    9.634154    ( 0.0000,  0.0000,  0.0000)
  50 Ti     2.798978    3.821127   10.341526    ( 0.0000,  0.0000,  0.0000)
  51 Ti     8.025848    5.713883   10.379991    ( 0.0000,  0.0000,  0.0000)
  52 Ti     0.534333    5.712849   11.320852    ( 0.0000,  0.0000,  0.0000)
  53 Ti     5.720312    3.826545   11.260313    ( 0.0000,  0.0000,  0.0000)
  54 O      0.925084    3.820406   11.091587    ( 0.0000,  0.0000,  0.0000)
  55 O      6.088515    5.722842   11.109720    ( 0.0000,  0.0000,  0.0000)
  56 O      9.036278    5.718319   12.011163    ( 0.0000,  0.0000,  0.0000)
  57 O      3.846080    3.771532   11.995433    ( 0.0000,  0.0000,  0.0000)
  58 O      7.573966    3.816194   10.520684    ( 0.0000,  0.0000,  0.0000)
  59 O      2.416480    5.729225   10.518287    ( 0.0000,  0.0000,  0.0000)
  60 O      0.904861    5.731658   13.201009    ( 0.0000,  0.0000,  0.0000)
  61 O      6.029638    3.803952   13.231544    ( 0.0000,  0.0000,  0.0000)
  62 Ti     4.166495    3.810324   13.892531    ( 0.0000,  0.0000,  0.0000)
  63 Ti     9.463894    5.734539   14.056822    ( 0.0000,  0.0000,  0.0000)
  64 Ti     1.928190    5.691518   15.022709    ( 0.0000,  0.0000,  0.0000)
  65 Ti     7.199484    3.802487   14.845298    ( 0.0000,  0.0000,  0.0000)
  66 O      2.347628    3.789380   14.836674    ( 0.0000,  0.0000,  0.0000)
  67 O      7.512902    5.757650   14.797850    ( 0.0000,  0.0000,  0.0000)
  68 O      0.184297    5.714627   15.571845    ( 0.0000,  0.0000,  0.0000)
  69 O      5.211153    3.856067   15.605207    ( 0.0000,  0.0000,  0.0000)
  70 O      8.978671    3.809173   14.103399    ( 0.0000,  0.0000,  0.0000)
  71 O      3.792206    5.717340   13.946669    ( 0.0000,  0.0000,  0.0000)
  72 O      8.476572    9.555862    6.000000    ( 0.0000,  0.0000,  0.0000)
  73 O      3.305699    7.644690    6.000000    ( 0.0000,  0.0000,  0.0000)
  74 Ti     1.412752    7.644690    6.752957    ( 0.0000,  0.0000,  0.0000)
  75 Ti     6.583625    9.555862    6.752957    ( 0.0000,  0.0000,  0.0000)
  76 Ti     9.522250    9.555862    7.640878    ( 0.0000,  0.0000,  0.0000)
  77 Ti     4.351376    7.644690    7.640878    ( 0.0000,  0.0000,  0.0000)
  78 O      9.861551    7.644690    7.505914    ( 0.0000,  0.0000,  0.0000)
  79 O      4.690678    9.555862    7.505914    ( 0.0000,  0.0000,  0.0000)
  80 O      7.629303    9.555862    8.393834    ( 0.0000,  0.0000,  0.0000)
  81 O      2.458430    7.644690    8.393834    ( 0.0000,  0.0000,  0.0000)
  82 O      6.244323    7.644690    6.887921    ( 0.0000,  0.0000,  0.0000)
  83 O      1.073450    9.555862    6.887921    ( 0.0000,  0.0000,  0.0000)
  84 O      9.799427    9.555913    9.606463    ( 0.0000,  0.0000,  0.0000)
  85 O      4.627717    7.627928    9.604096    ( 0.0000,  0.0000,  0.0000)
  86 Ti     2.737302    7.632950   10.343003    ( 0.0000,  0.0000,  0.0000)
  87 Ti     7.957898    9.561100   10.406088    ( 0.0000,  0.0000,  0.0000)
  88 Ti     0.495562    9.559760   11.165372    ( 0.0000,  0.0000,  0.0000)
  89 Ti     5.715837    7.616281   11.126768    ( 0.0000,  0.0000,  0.0000)
  90 O      0.924822    7.642084   11.093511    ( 0.0000,  0.0000,  0.0000)
  91 O      6.096349    9.546554   11.073016    ( 0.0000,  0.0000,  0.0000)
  92 O      9.038608    9.528041   11.992400    ( 0.0000,  0.0000,  0.0000)
  93 O      3.858957    7.673321   11.968024    ( 0.0000,  0.0000,  0.0000)
  94 O      7.573980    7.628970   10.498717    ( 0.0000,  0.0000,  0.0000)
  95 O      2.396420    9.550707   10.494653    ( 0.0000,  0.0000,  0.0000)
  96 O      0.908351    9.620847   13.125192    ( 0.0000,  0.0000,  0.0000)
  97 O      6.067787    7.669354   13.137082    ( 0.0000,  0.0000,  0.0000)
  98 Ti     4.074510    7.605894   13.847145    ( 0.0000,  0.0000,  0.0000)
  99 Ti     9.401988    9.535803   14.087798    ( 0.0000,  0.0000,  0.0000)
 100 Ti     1.860864    9.583715   14.639688    ( 0.0000,  0.0000,  0.0000)
 101 Ti     7.035189    7.609321   14.623836    ( 0.0000,  0.0000,  0.0000)
 102 O      2.340810    7.682070   14.680865    ( 0.0000,  0.0000,  0.0000)
 103 O      7.528540    9.513247   14.882828    ( 0.0000,  0.0000,  0.0000)
 104 O      0.237602    9.507311   15.512826    ( 0.0000,  0.0000,  0.0000)
 105 O      5.303972    7.475376   15.578199    ( 0.0000,  0.0000,  0.0000)
 106 O      8.961305    7.631852   14.089965    ( 0.0000,  0.0000,  0.0000)
 107 O      3.846284    9.557512   14.095906    ( 0.0000,  0.0000,  0.0000)
 108 V      5.824309    4.001894   17.283694    ( 0.0000,  0.0000,  0.0000)
 109 V      4.388667    6.811212   17.073280    ( 0.0000,  0.0000,  0.0000)
 110 O      5.335559    2.846922   18.265588    ( 0.0000,  0.0000,  0.0000)
 111 O      4.033472    8.025786   18.037593    ( 0.0000,  0.0000,  0.0000)
 112 O      2.921938    5.960568   16.618519    ( 0.0000,  0.0000,  0.0000)
 113 O      7.472660    3.800449   16.746923    ( 0.0000,  0.0000,  0.0000)
 114 O      5.463530    5.674517   17.907637    ( 0.0000,  0.0000,  0.0000)

Unit cell:
           periodic     x           y           z      points  spacing
  1. axis:    yes   10.341746    0.000000    0.000000    54     0.1915
  2. axis:    yes   -0.000000   11.467000    0.000000    60     0.1911
  3. axis:    no     0.000000    0.000000   23.497201   125     0.1880

  Lengths:  10.341746  11.467000  23.497201
  Angles:   90.000000  90.000000  90.000000

Effective grid spacing dv^(1/3) = 0.1902

                     log10-error:    total        iterations:
           time      wfs    density  energy       fermi  poisson
iter:   1  02:27:33  -5.71   +inf  -956.197304    1             
iter:   2  02:28:41  -6.56  -4.67  -956.197306    1             
iter:   3  02:29:49  -6.98  -4.68  -956.197300    1             
iter:   4  02:30:57  -7.25  -4.84  -956.197299    1             
iter:   5  02:32:06  -7.51  -4.96  -956.197299    1             

Converged after 5 iterations.

Dipole moment: (-17.365591, 15.774602, -1.531668) |e|*Ang

Energy contributions relative to reference atoms: (reference = -1044851.132452)

Kinetic:       +668.164178
Potential:     -861.426632
External:        +0.000000
XC:            -770.644872
Entropy (-ST):   -0.000485
Local:           +7.710270
--------------------------
Free energy:   -956.197541
Extrapolated:  -956.197299

Fermi level: -0.77400

Showing only first 2 kpts
 Kpt  Band  Eigenvalues  Occupancy
  0   458     -1.84646    0.22222
  0   459     -1.84313    0.22222
  0   460      0.07834    0.00004
  0   461      0.23585    0.00001

  1   458     -1.86432    0.44444
  1   459     -1.83261    0.44443
  1   460      0.27102    0.00001
  1   461      0.37437    0.00000



Forces in eV/Ang:
  0 O    -1.83547    0.00379    1.58888
  1 O    -1.84737   -0.00272    1.58085
  2 Ti    3.87368    0.01442    2.00885
  3 Ti    3.85626   -0.01399    1.99047
  4 Ti   -1.99962   -0.00697   -1.88056
  5 Ti   -1.95780    0.01337   -1.88951
  6 O     0.88850   -0.00256   -0.15759
  7 O     0.84212    0.04079   -0.14994
  8 O    -0.63995   -0.00516   -0.46568
  9 O    -0.63890   -0.00826   -0.54873
 10 O    -0.29531    0.00258   -0.89757
 11 O    -0.24755    0.08538   -0.89584
 12 O    -0.00039   -0.00029   -0.00215
 13 O     0.00141   -0.00055    0.00067
 14 Ti   -0.00157    0.00058   -0.00202
 15 Ti   -0.00080    0.00208   -0.00082
 16 Ti    0.00274    0.00089    0.00015
 17 Ti   -0.00045   -0.00019   -0.00247
 18 O    -0.00019   -0.00043    0.00054
 19 O     0.00040   -0.00185   -0.00034
 20 O     0.00020    0.00021    0.00214
 21 O     0.00057   -0.00097    0.00153
 22 O    -0.00063   -0.00040   -0.00019
 23 O    -0.00081    0.00078    0.00041
 24 O    -0.00198   -0.00051   -0.00266
 25 O     0.00080   -0.00061    0.00269
 26 Ti   -0.00341   -0.00432   -0.00035
 27 Ti   -0.00153    0.00046   -0.00045
 28 Ti    0.00252    0.00150    0.00482
 29 Ti    0.00023   -0.00182   -0.00141
 30 O     0.00087   -0.00097   -0.00044
 31 O     0.00093   -0.00191   -0.00071
 32 O    -0.00075   -0.00012    0.00161
 33 O     0.00049   -0.00106    0.00147
 34 O    -0.00086    0.00254    0.00045
 35 O    -0.00130   -0.00140   -0.00007
 36 O    -1.83984    0.00182    1.56150
 37 O    -1.87285    0.00552    1.62021
 38 Ti    3.65876   -0.05068    1.80729
 39 Ti    3.91148   -0.01611    1.99847
 40 Ti   -1.94939   -0.01418   -1.43956
 41 Ti   -1.61559   -0.02187   -1.56220
 42 O     0.94122   -0.00546   -0.19673
 43 O     0.81401   -0.00105   -0.16930
 44 O    -0.68960   -0.02900   -0.59003
 45 O    -0.66286    0.01442   -0.51122
 46 O    -0.33527    0.00442   -0.85309
 47 O    -0.20992    0.02447   -0.89310
 48 O    -0.00029    0.00059   -0.00030
 49 O     0.00061   -0.00052   -0.00079
 50 Ti   -0.00007   -0.00008    0.00051
 51 Ti    0.00200   -0.00000    0.00055
 52 Ti   -0.00211   -0.00044    0.00123
 53 Ti   -0.00096    0.00175   -0.00070
 54 O    -0.00019   -0.00349    0.00025
 55 O    -0.00105    0.00102    0.00057
 56 O     0.00084    0.00028   -0.00153
 57 O     0.00031   -0.00128    0.00161
 58 O    -0.00000   -0.00244   -0.00040
 59 O     0.00139    0.00232   -0.00064
 60 O     0.00036    0.00054    0.00061
 61 O     0.00058   -0.00079    0.00045
 62 Ti    0.00036    0.00354    0.00116
 63 Ti    0.00196    0.00143    0.00009
 64 Ti    0.00156    0.00337    0.00413
 65 Ti   -0.00173    0.00271    0.00545
 66 O     0.00062   -0.00514    0.00011
 67 O    -0.00123    0.00083    0.00060
 68 O     0.00096    0.00060   -0.00097
 69 O     0.00056   -0.00217   -0.00084
 70 O     0.00070   -0.00387   -0.00039
 71 O     0.00144   -0.00270   -0.00065
 72 O    -1.82323   -0.00338    1.58884
 73 O    -1.91743   -0.00650    1.62772
 74 Ti    3.59797    0.03504    1.73613
 75 Ti    3.88555    0.02384    2.00747
 76 Ti   -2.04381    0.02650   -1.89671
 77 Ti   -1.60442    0.01078   -1.92661
 78 O     0.95272    0.01080   -0.18214
 79 O     0.83636   -0.06668   -0.14213
 80 O    -0.62299   -0.01956   -0.52213
 81 O    -0.68838   -0.01357   -0.49522
 82 O    -0.34633   -0.00645   -0.88045
 83 O    -0.24027   -0.11072   -0.89144
 84 O    -0.00136    0.00028   -0.00316
 85 O     0.00032    0.00040    0.00130
 86 Ti    0.00037   -0.00075    0.00040
 87 Ti   -0.00031   -0.00217    0.00181
 88 Ti    0.00233   -0.00027    0.00284
 89 Ti   -0.00042   -0.00186    0.00056
 90 O     0.00056    0.00078   -0.00052
 91 O     0.00055    0.00149   -0.00009
 92 O    -0.00069    0.00030   -0.00011
 93 O    -0.00033   -0.00014   -0.00283
 94 O    -0.00006    0.00218    0.00035
 95 O    -0.00091   -0.00035   -0.00023
 96 O     0.00103   -0.00032    0.00104
 97 O    -0.00108    0.00001   -0.00100
 98 Ti    0.00045   -0.00051    0.00361
 99 Ti    0.00129   -0.00276    0.00036
100 Ti    0.00081   -0.00194    0.00033
101 Ti   -0.00320   -0.00253    0.00335
102 O    -0.00187   -0.00128    0.00043
103 O    -0.00039    0.00309    0.00084
104 O     0.00018    0.00013   -0.00143
105 O     0.00385    0.00235   -0.00686
106 O    -0.00090    0.00001   -0.00021
107 O     0.00064    0.00541   -0.00068
108 V     0.00078    0.00158    0.00056
109 V     0.00243   -0.00248    0.00276
110 O    -0.00145   -0.00351    0.00227
111 O    -0.00118    0.00540    0.00334
112 O    -0.00517   -0.00129   -0.00484
113 O    -0.00097   -0.00127   -0.00173
114 O     0.00251   -0.00208    0.00164

Timing:                                      incl.     excl.
-------------------------------------------------------------------
Density initialized from wave functions:   306.450   306.447   0.3% |
 Symmetrize density:                         0.002     0.002   0.0% |
Forces:                                   2313.519  2313.519   2.4% ||
Hamiltonian:                               117.136     1.724   0.0% |
 Atomic:                                    38.013     9.835   0.0% |
  XC Correction:                            28.178    28.178   0.0% |
 Calculate atomic Hamiltonians:             55.357    55.357   0.1% |
 Communicate:                                3.117     3.117   0.0% |
 Initialize Hamiltonian:                     0.000     0.000   0.0% |
 Poisson:                                    0.137     0.137   0.0% |
 XC 3D grid:                                18.788    18.788   0.0% |
LCAO initialization:                       218.566     1.713   0.0% |
 LCAO eigensolver:                          67.857     0.099   0.0% |
  Calculate projections:                     0.000     0.000   0.0% |
  DenseAtomicCorrection:                     0.001     0.001   0.0% |
  Distribute overlap matrix:                 6.093     6.093   0.0% |
  Orbital Layouts:                          54.878    54.878   0.1% |
  Potential matrix:                          0.069     0.069   0.0% |
  Sum over cells:                            6.718     6.718   0.0% |
 LCAO to grid:                             143.705   143.705   0.2% |
 Set positions (LCAO WFS):                   5.292     4.419   0.0% |
  Basic WFS set positions:                   0.003     0.003   0.0% |
  Basis functions set positions:             0.001     0.001   0.0% |
  P tci:                                     0.036     0.036   0.0% |
  ST tci:                                    0.531     0.531   0.0% |
  mktci:                                     0.301     0.301   0.0% |
PWDescriptor:                                0.139     0.139   0.0% |
Redistribute:                                0.229     0.229   0.0% |
SCF-cycle:                               91881.129     2.033   0.0% |
 Davidson:                               87458.413 22688.108  23.8% |---------|
  Apply H:                               11855.299 11482.190  12.0% |----|
   HMM T:                                  373.109   373.109   0.4% |
  Subspace diag:                          9916.509     1.050   0.0% |
   calc_h_matrix:                         5664.976  1700.893   1.8% ||
    Apply H:                              3964.084  3838.849   4.0% |-|
     HMM T:                                125.235   125.235   0.1% |
   diagonalize:                           1056.130  1056.130   1.1% |
   rotate_psi:                            3194.353  3194.353   3.3% ||
  calc. matrices:                        20474.885 12670.104  13.3% |----|
   Apply H:                               7804.781  7557.428   7.9% |--|
    HMM T:                                 247.353   247.353   0.3% |
  diagonalize:                           15717.147 15717.147  16.5% |------|
  rotate_psi:                             6806.463  6806.463   7.1% |--|
 Density:                                 2554.985     0.032   0.0% |
  Atomic density matrices:                  18.021    18.021   0.0% |
  Mix:                                     520.337   520.337   0.5% |
  Multipole moments:                         0.520     0.520   0.0% |
  Pseudo density:                         2016.075  2016.051   2.1% ||
   Symmetrize density:                       0.024     0.024   0.0% |
 Hamiltonian:                              962.937    14.428   0.0% |
  Atomic:                                  310.790    79.541   0.1% |
   XC Correction:                          231.250   231.250   0.2% |
  Calculate atomic Hamiltonians:           452.805   452.805   0.5% |
  Communicate:                              26.274    26.274   0.0% |
  Poisson:                                   1.132     1.132   0.0% |
  XC 3D grid:                              157.508   157.508   0.2% |
 Orthonormalize:                           902.762     0.168   0.0% |
  calc_s_matrix:                            91.324    91.324   0.1% |
  inverse-cholesky:                         58.066    58.066   0.1% |
  projections:                             583.896   583.896   0.6% |
  rotate_psi_s:                            169.309   169.309   0.2% |
Set symmetry:                                0.001     0.001   0.0% |
Other:                                     664.751   664.751   0.7% |
-------------------------------------------------------------------
Total:                                             95501.921 100.0%

Memory usage: 1.35 GiB
Date: Sun May 26 02:32:22 2019
