
  ___ ___ ___ _ _ _  
 |   |   |_  | | | | 
 | | | | | . | | | | 
 |__ |  _|___|_____|  1.5.1
 |___|_|             

User:   siva@s74n34.grendel.cscaa.dk
Date:   Tue Jul  2 14:32:03 2019
Arch:   x86_64
Pid:    38267
Python: 3.6.3
gpaw:   /home/siva/gpaw-1.5.1/gpaw
_gpaw:  /home/siva/gpaw-1.5.1/build/bin.linux-x86_64-3.6/gpaw-python
ase:    /home/siva/env1.5/lib/python3.6/site-packages/ase (version 3.17.0)
numpy:  /home/siva/env1.5/lib/python3.6/site-packages/numpy (version 1.16.0)
scipy:  /home/siva/env1.5/lib/python3.6/site-packages/scipy (version 1.2.0)
units:  Angstrom and eV
cores:  20
Extra parameters: {'blacs': True}

Input parameters:
  basis: dzp
  kpts: [2 2 1]
  mode: {ecut: 500.0,
         gammacentered: False,
         name: pw}
  setups: {Ti: :d,3.5}
  xc: PBE

System changes: positions, numbers, cell, pbc, initial_charges, initial_magmoms 

Initialize ...

O-setup:
  name: Oxygen
  id: 32ecd46bf208036f09c70b0ec9a88b78
  Z: 8
  valence: 6
  core: 2
  charge: 0.0
  file: /home/wido/sw/gpaw/basis/gpaw-setups-0.9.20000/O.PBE.gz
  cutoffs: 0.67(comp), 1.17(filt), 0.83(core), lmax=2
  valence states:
                energy  radius
    2s(2.00)   -23.961   0.688
    2p(4.00)    -9.029   0.598
    *s           3.251   0.688
    *p          18.182   0.598
    *d           0.000   0.619

  LCAO basis set for O:
    Name: dzp
    File: /home/wido/sw/gpaw/basis/gpaw-setups-0.9.20000/O.dzp.basis.gz
    Number of radial functions: 5
    Number of spherical harmonics: 13
      l=0, rc=4.3438 Bohr: 2s-sz confined orbital
      l=1, rc=5.3906 Bohr: 2p-sz confined orbital
      l=0, rc=2.2969 Bohr: 2s-dz split-valence wave
      l=1, rc=2.8906 Bohr: 2p-dz split-valence wave
      l=2, rc=5.3906 Bohr: d-type Gaussian polarization

Ti-setup:
  name: Titanium
  id: d282db07e62ae71292040bf25b25ccdd
  Z: 22
  valence: 12
  core: 10
  charge: 0.0
  Hubbard U: 3.500000 eV (l=2, scale=True)
  file: /home/wido/sw/gpaw/basis/gpaw-setups-0.9.20000/Ti.PBE.gz
  cutoffs: 1.22(comp), 2.23(filt), 1.02(core), lmax=2
  valence states:
                energy  radius
    3s(2.00)   -62.623   1.270
    4s(2.00)    -4.466   1.270
    3p(6.00)   -38.862   1.058
    4p(0.00)    -1.466   1.058
    3d(2.00)    -4.258   1.058
    *d          22.953   1.058

  LCAO basis set for Ti:
    Name: dzp
    File: /home/wido/sw/gpaw/basis/gpaw-setups-0.9.20000/Ti.dzp.basis.gz
    Number of radial functions: 11
    Number of spherical harmonics: 29
      l=0, rc=3.4375 Bohr: 3s-sz confined orbital
      l=0, rc=9.9062 Bohr: 4s-sz confined orbital
      l=1, rc=3.8906 Bohr: 3p-sz confined orbital
      l=1, rc=13.1094 Bohr: 4p-sz confined orbital
      l=2, rc=6.6250 Bohr: 3d-sz confined orbital
      l=0, rc=2.1406 Bohr: 3s-dz split-valence wave
      l=0, rc=6.0156 Bohr: 4s-dz split-valence wave
      l=1, rc=2.3125 Bohr: 3p-dz split-valence wave
      l=1, rc=8.1094 Bohr: 4p-dz split-valence wave
      l=2, rc=3.8594 Bohr: 3d-dz split-valence wave
      l=1, rc=9.9062 Bohr: p-type Gaussian polarization

V-setup:
  name: Vanadium
  id: a8354638d66c808f8c867a10b63fd727
  Z: 23
  valence: 13
  core: 10
  charge: 0.0
  file: /home/wido/sw/gpaw/basis/gpaw-setups-0.9.20000/V.PBE.gz
  cutoffs: 1.19(comp), 2.14(filt), 0.96(core), lmax=2
  valence states:
                energy  radius
    3s(2.00)   -70.222   1.254
    4s(2.00)    -4.702   1.254
    3p(6.00)   -44.043   1.281
    4p(0.00)    -1.444   1.281
    3d(3.00)    -5.164   1.169
    *d          22.047   1.169

  LCAO basis set for V:
    Name: dzp
    File: /home/wido/sw/gpaw/basis/gpaw-setups-0.9.20000/V.dzp.basis.gz
    Number of radial functions: 11
    Number of spherical harmonics: 29
      l=0, rc=3.2656 Bohr: 3s-sz confined orbital
      l=0, rc=9.5312 Bohr: 4s-sz confined orbital
      l=1, rc=3.6719 Bohr: 3p-sz confined orbital
      l=1, rc=12.8750 Bohr: 4p-sz confined orbital
      l=2, rc=6.0938 Bohr: 3d-sz confined orbital
      l=0, rc=2.0625 Bohr: 3s-dz split-valence wave
      l=0, rc=5.7656 Bohr: 4s-dz split-valence wave
      l=1, rc=2.4062 Bohr: 3p-dz split-valence wave
      l=1, rc=7.8906 Bohr: 4p-dz split-valence wave
      l=2, rc=3.6562 Bohr: 3d-dz split-valence wave
      l=1, rc=9.5312 Bohr: p-type Gaussian polarization

H-setup:
  name: Hydrogen
  id: d65de229564ff8ea4db303e23b6d1ecf
  Z: 1
  valence: 1
  core: 0
  charge: 0.0
  file: /home/wido/sw/gpaw/basis/gpaw-setups-0.9.20000/H.PBE.gz
  cutoffs: 0.48(comp), 0.85(filt), 0.53(core), lmax=2
  valence states:
                energy  radius
    1s(1.00)    -6.494   0.476
    *s          20.717   0.476
    *p           0.000   0.476

  LCAO basis set for H:
    Name: dzp
    File: /home/wido/sw/gpaw/basis/gpaw-setups-0.9.20000/H.dzp.basis.gz
    Number of radial functions: 3
    Number of spherical harmonics: 5
      l=0, rc=6.4219 Bohr: 1s-sz confined orbital
      l=0, rc=3.6094 Bohr: 1s-dz split-valence wave
      l=1, rc=6.4219 Bohr: p-type Gaussian polarization

Reference energy: -1042835.260475

Spin-paired calculation

Occupation numbers:
  Fermi-Dirac: width=0.1000 eV

Convergence criteria:
  Maximum total energy change: 0.0005 eV / electron
  Maximum integral of absolute density change: 0.0001 electrons
  Maximum integral of absolute eigenstate change: 4e-08 eV^2
  Maximum number of iterations: 333

Symmetries present (total): 1

  ( 1  0  0)
  ( 0  1  0)
  ( 0  0  1)

4 k-points: 2 x 2 x 1 Monkhorst-Pack grid
2 k-points in the irreducible part of the Brillouin zone
       k-points in crystal coordinates                weights
   0:     0.25000000   -0.25000000    0.00000000          2/4
   1:     0.25000000    0.25000000    0.00000000          2/4

Wave functions: Plane wave expansion
  Cutoff energy: 500.000 eV
  Number of coefficients (min, max): 70729, 70729
  Pulay-stress correction: 0.000000 eV/Ang^3 (de/decut=0.000000)
  Using FFTW library
  ScaLapack parameters: grid=1x1, blocksize=None
  Wavefunction extrapolation:
    Improved wavefunction reuse through dual PAW basis 

Eigensolver
   Davidson(niter=2, smin=None, normalize=True) 

Densities:
  Coarse grid: 54*60*125 grid
  Fine grid: 108*120*250 grid
  Total Charge: 0.000000 

Density mixing:
  Method: separate
  Backend: pulay
  Linear mixing parameter: 0.05
  Mixing with 5 old densities
  Damping of long wave oscillations: 50 

Hamiltonian:
  XC and Coulomb potentials evaluated on a 108*120*250 grid
  Using the PBE Exchange-Correlation functional
 

XC parameters: PBE with 2 nearest neighbor stencil

Memory estimate:
  Process memory now: 268.75 MiB
  Calculator: 1297.31 MiB
    Density: 24.83 MiB
      Arrays: 8.03 MiB
      Localized functions: 13.71 MiB
      Mixer: 3.09 MiB
    Hamiltonian: 5.65 MiB
      Arrays: 5.25 MiB
      XC: 0.00 MiB
      Poisson: 0.00 MiB
      vbar: 0.40 MiB
    Wavefunctions: 1266.83 MiB
      Arrays psit_nG: 597.90 MiB
      Eigensolver: 650.14 MiB
      Projections: 1.42 MiB
      Projectors: 1.56 MiB
      PW-descriptor: 15.80 MiB

Total number of cores used: 20
Parallelization over k-points: 2
Domain decomposition: 1 x 2 x 5

Number of atoms: 116
Number of atomic orbitals: 2100
Number of bands in calculation: 554
Bands to converge: occupied states only
Number of valence electrons: 916

... initialized

Initializing position-dependent things.

Density initialized from atomic densities
Creating initial wave functions:
  554 bands from LCAO basis set

                                               
                                               
                                               
                                               
                                               
                                               
                                               
                                               
                O                              
             O     H                           
          O    V Oi     TO     O    O          
          O      O    O      Oi     Ti         
               OiH    Ti     O   VO            
                    O O   Ti     Ti            
        O   O  OO  Tii          O  O           
             Ti   O O   O  O    Ti             
             O   O      Tii   OTi    O         
          OTi     TO     O                     
           O    O      Ti     Oi               
         Ti     Ti     OO   O     O Ti         
              OO    OTii    Tii     O          
               Oi     O  O O    OOTi           
             O    OOTi    TO     O             
            TO     O    O      Ti              
          O      Ti     Ti                     
          Ti          O      O O               
               O                               
                                               
                                               
                                               
                                               

Positions:
   0 O      8.476572    1.911173    6.000000    ( 0.0000,  0.0000,  0.0000)
   1 O      3.305699    0.000000    6.000000    ( 0.0000,  0.0000,  0.0000)
   2 Ti     1.412752    0.000000    6.752957    ( 0.0000,  0.0000,  0.0000)
   3 Ti     6.583625    1.911173    6.752957    ( 0.0000,  0.0000,  0.0000)
   4 Ti     9.522250    1.911173    7.640878    ( 0.0000,  0.0000,  0.0000)
   5 Ti     4.351376    0.000000    7.640878    ( 0.0000,  0.0000,  0.0000)
   6 O      9.861551    0.000000    7.505914    ( 0.0000,  0.0000,  0.0000)
   7 O      4.690678    1.911173    7.505914    ( 0.0000,  0.0000,  0.0000)
   8 O      7.629303    1.911173    8.393834    ( 0.0000,  0.0000,  0.0000)
   9 O      2.458430    0.000000    8.393834    ( 0.0000,  0.0000,  0.0000)
  10 O      6.244323    0.000000    6.887921    ( 0.0000,  0.0000,  0.0000)
  11 O      1.073450    1.911173    6.887921    ( 0.0000,  0.0000,  0.0000)
  12 O      9.815988    1.905896    9.608087    ( 0.0000,  0.0000,  0.0000)
  13 O      4.646960    0.001749    9.581940    ( 0.0000,  0.0000,  0.0000)
  14 Ti     2.755880   11.437329   10.356085    ( 0.0000,  0.0000,  0.0000)
  15 Ti     7.933617    1.911095   10.313232    ( 0.0000,  0.0000,  0.0000)
  16 Ti     0.558427    1.925543   11.148437    ( 0.0000,  0.0000,  0.0000)
  17 Ti     5.664779    0.009070   11.120116    ( 0.0000,  0.0000,  0.0000)
  18 O      0.916824   11.453162   11.064986    ( 0.0000,  0.0000,  0.0000)
  19 O      6.084035    1.913177   11.085984    ( 0.0000,  0.0000,  0.0000)
  20 O      9.035459    1.973490   11.984065    ( 0.0000,  0.0000,  0.0000)
  21 O      3.879696   11.467827   11.952372    ( 0.0000,  0.0000,  0.0000)
  22 O      7.572457    0.008928   10.452532    ( 0.0000,  0.0000,  0.0000)
  23 O      2.388617    1.922401   10.453939    ( 0.0000,  0.0000,  0.0000)
  24 O      0.949450    1.741077   13.121044    ( 0.0000,  0.0000,  0.0000)
  25 O      6.130318   11.448088   13.079762    ( 0.0000,  0.0000,  0.0000)
  26 Ti     4.234949   11.434789   13.968566    ( 0.0000,  0.0000,  0.0000)
  27 Ti     9.355605    1.837762   13.841819    ( 0.0000,  0.0000,  0.0000)
  28 Ti     1.954065    1.878927   14.658006    ( 0.0000,  0.0000,  0.0000)
  29 Ti     7.012838    0.002797   14.620677    ( 0.0000,  0.0000,  0.0000)
  30 O      2.396342   11.440786   14.815414    ( 0.0000,  0.0000,  0.0000)
  31 O      7.554409    1.867818   14.774577    ( 0.0000,  0.0000,  0.0000)
  32 O      0.197434    2.145122   15.495553    ( 0.0000,  0.0000,  0.0000)
  33 O      5.391131    0.004723   15.452964    ( 0.0000,  0.0000,  0.0000)
  34 O      9.053326   11.462453   13.968361    ( 0.0000,  0.0000,  0.0000)
  35 O      3.832313    1.898139   13.973206    ( 0.0000,  0.0000,  0.0000)
  36 O      8.476572    5.733518    6.000000    ( 0.0000,  0.0000,  0.0000)
  37 O      3.305699    3.822345    6.000000    ( 0.0000,  0.0000,  0.0000)
  38 Ti     1.412752    3.822345    6.752957    ( 0.0000,  0.0000,  0.0000)
  39 Ti     6.583625    5.733518    6.752957    ( 0.0000,  0.0000,  0.0000)
  40 Ti     9.522250    5.733518    7.640878    ( 0.0000,  0.0000,  0.0000)
  41 Ti     4.351376    3.822345    7.640878    ( 0.0000,  0.0000,  0.0000)
  42 O      9.861551    3.822345    7.505914    ( 0.0000,  0.0000,  0.0000)
  43 O      4.690678    5.733518    7.505914    ( 0.0000,  0.0000,  0.0000)
  44 O      7.629303    5.733518    8.393834    ( 0.0000,  0.0000,  0.0000)
  45 O      2.458430    3.822345    8.393834    ( 0.0000,  0.0000,  0.0000)
  46 O      6.244323    3.822345    6.887921    ( 0.0000,  0.0000,  0.0000)
  47 O      1.073450    5.733518    6.887921    ( 0.0000,  0.0000,  0.0000)
  48 O      9.817675    5.733452    9.612415    ( 0.0000,  0.0000,  0.0000)
  49 O      4.647485    3.822290    9.603699    ( 0.0000,  0.0000,  0.0000)
  50 Ti     2.814683    3.823500   10.322170    ( 0.0000,  0.0000,  0.0000)
  51 Ti     7.929280    5.732246   10.313009    ( 0.0000,  0.0000,  0.0000)
  52 Ti     0.547395    5.719804   11.157015    ( 0.0000,  0.0000,  0.0000)
  53 Ti     5.710611    3.820367   11.200608    ( 0.0000,  0.0000,  0.0000)
  54 O      0.913810    3.821911   11.122165    ( 0.0000,  0.0000,  0.0000)
  55 O      6.085065    5.730358   11.085301    ( 0.0000,  0.0000,  0.0000)
  56 O      9.032982    5.683662   11.989271    ( 0.0000,  0.0000,  0.0000)
  57 O      3.904096    3.821869   11.969741    ( 0.0000,  0.0000,  0.0000)
  58 O      7.567542    3.822221   10.443288    ( 0.0000,  0.0000,  0.0000)
  59 O      2.386806    5.719639   10.455783    ( 0.0000,  0.0000,  0.0000)
  60 O      0.928976    5.864838   13.159822    ( 0.0000,  0.0000,  0.0000)
  61 O      6.190612    3.823423   13.150495    ( 0.0000,  0.0000,  0.0000)
  62 Ti     4.226859    3.824154   13.922632    ( 0.0000,  0.0000,  0.0000)
  63 Ti     9.360280    5.797729   13.850433    ( 0.0000,  0.0000,  0.0000)
  64 Ti     1.941442    5.753086   14.697631    ( 0.0000,  0.0000,  0.0000)
  65 Ti     7.001987    3.825415   14.816996    ( 0.0000,  0.0000,  0.0000)
  66 O      2.329379    3.815665   14.576260    ( 0.0000,  0.0000,  0.0000)
  67 O      7.548210    5.776085   14.780653    ( 0.0000,  0.0000,  0.0000)
  68 O      0.201598    5.505723   15.567269    ( 0.0000,  0.0000,  0.0000)
  69 O      5.341860    3.818775   15.481320    ( 0.0000,  0.0000,  0.0000)
  70 O      9.117593    3.828712   14.150145    ( 0.0000,  0.0000,  0.0000)
  71 O      3.829696    5.738730   13.980404    ( 0.0000,  0.0000,  0.0000)
  72 O      8.476572    9.555862    6.000000    ( 0.0000,  0.0000,  0.0000)
  73 O      3.305699    7.644690    6.000000    ( 0.0000,  0.0000,  0.0000)
  74 Ti     1.412752    7.644690    6.752957    ( 0.0000,  0.0000,  0.0000)
  75 Ti     6.583625    9.555862    6.752957    ( 0.0000,  0.0000,  0.0000)
  76 Ti     9.522250    9.555862    7.640878    ( 0.0000,  0.0000,  0.0000)
  77 Ti     4.351376    7.644690    7.640878    ( 0.0000,  0.0000,  0.0000)
  78 O      9.861551    7.644690    7.505914    ( 0.0000,  0.0000,  0.0000)
  79 O      4.690678    9.555862    7.505914    ( 0.0000,  0.0000,  0.0000)
  80 O      7.629303    9.555862    8.393834    ( 0.0000,  0.0000,  0.0000)
  81 O      2.458430    7.644690    8.393834    ( 0.0000,  0.0000,  0.0000)
  82 O      6.244323    7.644690    6.887921    ( 0.0000,  0.0000,  0.0000)
  83 O      1.073450    9.555862    6.887921    ( 0.0000,  0.0000,  0.0000)
  84 O      9.810182    9.550938    9.581167    ( 0.0000,  0.0000,  0.0000)
  85 O      4.645649    7.640276    9.582829    ( 0.0000,  0.0000,  0.0000)
  86 Ti     2.757022    7.663504   10.357181    ( 0.0000,  0.0000,  0.0000)
  87 Ti     7.919176    9.554715   10.357433    ( 0.0000,  0.0000,  0.0000)
  88 Ti     0.467809    9.555139   11.130072    ( 0.0000,  0.0000,  0.0000)
  89 Ti     5.664629    7.635230   11.121422    ( 0.0000,  0.0000,  0.0000)
  90 O      0.917080    7.647531   11.074412    ( 0.0000,  0.0000,  0.0000)
  91 O      6.085483    9.554749   11.075098    ( 0.0000,  0.0000,  0.0000)
  92 O      9.052341    9.553748   11.957743    ( 0.0000,  0.0000,  0.0000)
  93 O      7.571541    7.635184   10.451833    ( 0.0000,  0.0000,  0.0000)
  94 O      2.409877    9.551994   10.447240    ( 0.0000,  0.0000,  0.0000)
  95 O      0.982555    9.553528   13.074989    ( 0.0000,  0.0000,  0.0000)
  96 O      6.127204    7.656889   13.081027    ( 0.0000,  0.0000,  0.0000)
  97 Ti     4.232571    7.661931   13.970756    ( 0.0000,  0.0000,  0.0000)
  98 Ti     9.399894    9.550661   14.013268    ( 0.0000,  0.0000,  0.0000)
  99 Ti     1.857890    9.552372   14.605106    ( 0.0000,  0.0000,  0.0000)
 100 Ti     7.010985    7.640327   14.621910    ( 0.0000,  0.0000,  0.0000)
 101 O      2.391500    7.656557   14.820336    ( 0.0000,  0.0000,  0.0000)
 102 O      7.579858    9.555425   14.814637    ( 0.0000,  0.0000,  0.0000)
 103 O      0.234664    9.554122   15.453112    ( 0.0000,  0.0000,  0.0000)
 104 O      5.389449    7.636151   15.453898    ( 0.0000,  0.0000,  0.0000)
 105 O      9.052329    7.647178   13.974335    ( 0.0000,  0.0000,  0.0000)
 106 O      3.865217    9.550080   13.960281    ( 0.0000,  0.0000,  0.0000)
 107 V      2.325884    3.787094   17.633342    ( 0.0000,  0.0000,  0.0000)
 108 V      9.824914    3.820022   16.092403    ( 0.0000,  0.0000,  0.0000)
 109 O      2.808998    5.367527   16.739273    ( 0.0000,  0.0000,  0.0000)
 110 O      0.601731    3.804820   17.600537    ( 0.0000,  0.0000,  0.0000)
 111 O      8.275572    3.818363   16.672389    ( 0.0000,  0.0000,  0.0000)
 112 O      2.822103    3.810832   19.142066    ( 0.0000,  0.0000,  0.0000)
 113 O      2.789390    2.194202   16.739535    ( 0.0000,  0.0000,  0.0000)
 114 H      3.585125    5.895059   17.041074    ( 0.0000,  0.0000,  0.0000)
 115 H      3.584425    1.682002   17.017431    ( 0.0000,  0.0000,  0.0000)

Unit cell:
           periodic     x           y           z      points  spacing
  1. axis:    yes   10.341746    0.000000    0.000000    54     0.1915
  2. axis:    yes   -0.000000   11.467000    0.000000    60     0.1911
  3. axis:    no     0.000000    0.000000   23.497201   125     0.1880

  Lengths:  10.341746  11.467000  23.497201
  Angles:   90.000000  90.000000  90.000000

Effective grid spacing dv^(1/3) = 0.1902

                     log10-error:    total        iterations:
           time      wfs    density  energy       fermi  poisson
iter:   1  14:34:21  -0.02   +inf  -1032.143031    3             
iter:   2  14:34:59  -0.96  -0.93  -978.943825    33            
iter:   3  14:35:36  +0.24  -0.98  -862.342755    35            
iter:   4  14:36:14  -0.02  -1.25  -863.402807    4             
iter:   5  14:36:51  -0.53  -1.35  -903.328059    3             
iter:   6  14:37:29  -1.55  -1.21  -880.237417    33            
iter:   7  14:38:07  -0.61  -1.32  -867.853604    34            
iter:   8  14:38:44  +0.01  -1.57  -888.402051    5             
iter:   9  14:39:22  -0.80  -1.50  -868.042370    31            
iter:  10  14:39:59  -1.29  -1.79  -868.502130    5             
iter:  11  14:40:37  -1.73  -1.84  -866.831610    5             
iter:  12  14:41:15  -1.71  -2.18  -867.057498    3             
iter:  13  14:41:52  -2.81  -2.22  -866.744363    4             
iter:  14  14:42:30  -2.90  -2.25  -866.595365    4             
iter:  15  14:43:08  -2.35  -2.26  -866.760026    3             
iter:  16  14:43:45  -2.68  -2.31  -866.561607    4             
iter:  17  14:44:23  -2.77  -2.38  -866.574179    3             
iter:  18  14:45:00  -3.29  -2.39  -866.707661    4             
iter:  19  14:45:38  -3.65  -2.52  -866.669310    4             
iter:  20  14:46:16  -3.12  -2.66  -866.741490    4             
iter:  21  14:46:53  -3.52  -2.79  -866.751118    3             
iter:  22  14:47:31  -3.82  -2.83  -866.721374    3             
iter:  23  14:48:08  -3.80  -2.94  -866.715011    2             
iter:  24  14:48:46  -4.58  -3.04  -866.722628    3             
iter:  25  14:49:24  -4.63  -3.07  -866.711418    3             
iter:  26  14:50:01  -3.77  -3.12  -866.710441    3             
iter:  27  14:50:39  -4.87  -3.32  -866.708309    3             
iter:  28  14:51:16  -4.81  -3.52  -866.708754    3             
iter:  29  14:51:54  -4.72  -3.64  -866.707783    3             
iter:  30  14:52:32  -5.51  -3.83  -866.707232    3             
iter:  31  14:53:09  -6.05  -4.04  -866.706533    2             
iter:  32  14:53:47  -6.28  -4.11  -866.706924    3             
iter:  33  14:54:24  -6.66  -4.16  -866.706317    2             
iter:  34  14:55:02  -6.14  -4.24  -866.706691    2             
iter:  35  14:55:40  -7.08  -4.33  -866.706646    2             
iter:  36  14:56:17  -6.58  -4.40  -866.706711    2             
iter:  37  14:56:55  -6.49  -4.54  -866.706780    3             
iter:  38  14:57:32  -7.27  -4.68  -866.706699    2             
iter:  39  14:58:10  -7.74  -4.91  -866.706654    2             

Converged after 39 iterations.

Dipole moment: (-9.415869, 7.930813, -0.627478) |e|*Ang

Energy contributions relative to reference atoms: (reference = -1042835.260475)

Kinetic:       +618.878730
Potential:     -819.154185
External:        +0.000000
XC:            -676.619279
Entropy (-ST):   -0.376463
Local:          +10.376312
--------------------------
Free energy:   -866.894885
Extrapolated:  -866.706654

Fermi level: 0.91531

Showing all kpts
 Kpt  Band  Eigenvalues  Occupancy
  0   456      0.10504    0.99970
  0   457      0.87415    0.60146
  0   458      1.03306    0.23550
  0   459      1.11550    0.11900

  1   456      0.10501    0.99970
  1   457      0.87436    0.60098
  1   458      1.03337    0.23494
  1   459      1.11516    0.11936



Forces in eV/Ang:
  0 O    -1.87254    0.00754    1.46035
  1 O    -1.91984    0.00805    1.39726
  2 Ti    3.59633   -0.04201    1.40774
  3 Ti    3.43034   -0.03297    1.24482
  4 Ti   -1.59732   -0.06115   -2.00608
  5 Ti   -1.79759   -0.02996   -2.21046
  6 O     0.85223    0.06270   -0.10789
  7 O     0.87029    0.04602   -0.10925
  8 O    -0.51782    0.01358   -0.27277
  9 O    -0.51034    0.00068   -0.17389
 10 O    -0.31069    0.04885   -0.85579
 11 O    -0.34285    0.04293   -0.86974
 12 O    -0.22508   -0.00114   -0.13932
 13 O    -0.36194   -0.00322   -0.17754
 14 Ti    0.17025    0.30086   -0.23090
 15 Ti    0.13923    0.04317    0.10808
 16 Ti   -0.11495   -0.14179    0.49330
 17 Ti    0.40344   -0.03898    0.45065
 18 O     0.07885    0.07668   -0.10978
 19 O     0.13737   -0.02030   -0.09035
 20 O    -0.05597    0.01739   -0.29529
 21 O    -0.06628   -0.00394    0.22105
 22 O    -0.00217   -0.03574    0.11048
 23 O     0.17372   -0.11815    0.03390
 24 O    -0.41106    0.06253   -0.37438
 25 O    -0.52963   -0.03087   -0.45204
 26 Ti   -0.06230    0.29774   -0.30891
 27 Ti    0.32091    0.52090    0.51065
 28 Ti    0.22209    0.20274    0.84151
 29 Ti    0.95099   -0.08724    0.48024
 30 O     0.12659   -0.15134    0.15576
 31 O    -0.00972    0.07546   -0.13070
 32 O    -0.09801   -0.27594   -0.09247
 33 O    -0.19691   -0.01558    0.39475
 34 O    -0.32798   -0.26976    0.27598
 35 O    -0.09547   -0.09494    0.05785
 36 O    -1.86107   -0.00910    1.46918
 37 O    -1.91109   -0.00041    1.42711
 38 Ti    3.53548   -0.00133    1.29804
 39 Ti    3.42355    0.03367    1.23902
 40 Ti   -1.59281    0.06821   -1.99477
 41 Ti   -1.61836   -0.00245   -2.01895
 42 O     0.84406    0.00389   -0.08400
 43 O     0.87285   -0.04476   -0.10320
 44 O    -0.50480   -0.01167   -0.27129
 45 O    -0.51397    0.00943   -0.23553
 46 O    -0.31433    0.00101   -0.89624
 47 O    -0.35052   -0.04396   -0.87716
 48 O    -0.21380   -0.00789   -0.15034
 49 O    -0.10151    0.00204   -0.07365
 50 Ti   -0.12676   -0.12074    0.06684
 51 Ti    0.13722    0.05772    0.13580
 52 Ti   -0.16006    0.10557    0.51709
 53 Ti    0.25249    0.00481    0.23672
 54 O     0.31997    0.02473   -0.04447
 55 O    -0.04087   -0.01624   -0.03109
 56 O    -0.05101   -0.01156   -0.28104
 57 O    -0.04001   -0.00349    0.06172
 58 O     0.01400   -0.02328    0.02992
 59 O     0.41386    0.32091    0.32577
 60 O    -0.27510   -0.02186   -0.60741
 61 O    -0.57984   -0.00037   -0.46765
 62 Ti    0.11443   -0.13066   -0.05355
 63 Ti    0.21594   -0.41465    0.60414
 64 Ti    0.20347   -0.21889    0.85797
 65 Ti    1.13398    0.01062    0.62759
 66 O     0.02653    0.01766   -0.04316
 67 O     0.02413   -0.13062   -0.11403
 68 O    -0.11938    0.27769   -0.42403
 69 O    -0.45430    0.00376    0.44601
 70 O    -0.08901   -0.05370   -0.12171
 71 O    -0.15038    0.31960   -0.28864
 72 O    -1.90264   -0.00037    1.39229
 73 O    -1.86805   -0.00618    1.34096
 74 Ti    3.63892    0.04116    1.50091
 75 Ti    3.60142   -0.00064    1.41609
 76 Ti   -1.83952   -0.00709   -2.18754
 77 Ti   -2.02729    0.03361   -2.13999
 78 O     0.83384   -0.08142   -0.11086
 79 O     0.84893   -0.00540   -0.09855
 80 O    -0.54936    0.00246   -0.21382
 81 O    -0.38121   -0.02583   -0.35134
 82 O    -0.30348   -0.04896   -0.86688
 83 O    -0.31768    0.00268   -0.86079
 84 O    -0.30100    0.00342   -0.15299
 85 O    -0.64636   -0.00607    0.92048
 86 Ti   -0.29921   -0.17864   -1.18137
 87 Ti    0.15241   -0.08530   -0.19691
 88 Ti    0.37532   -0.03109    0.41224
 89 Ti    1.17423    0.04496    0.40472
 90 O     0.18050   -0.03863    0.18641
 91 O    -0.11013    0.04334   -0.02046
 92 O    -0.08568    0.00386    0.30039
 93 O     0.23310    0.04495    0.05353
 94 O     0.20733   -0.20360    0.36085
 95 O    -0.60629    0.00088   -0.48210
 96 O    -1.42255    0.01949   -1.28925
 97 Ti    0.52061   -0.20163    0.45908
 98 Ti   -0.03169   -0.00370   -0.48518
 99 Ti    0.79085   -0.02395    0.57670
100 Ti    0.74173    0.07250    0.56668
101 O     0.00965    0.15534    0.03664
102 O     0.01055    0.06184    0.20980
103 O    -0.06897    0.00612    0.42020
104 O    -0.14202    0.00396    0.54093
105 O    -0.26645    0.21717    0.29158
106 O    -0.34204   -0.21387   -0.19533
107 V    -0.11566    0.01033    0.39047
108 V    -0.09472   -0.01815    0.50994
109 O     0.38009    0.46826   -0.18904
110 O    -0.06196   -0.04762   -0.23842
111 O    -0.13493   -0.00023   -0.26017
112 O     0.09762   -0.04313   -0.07412
113 O     0.32667   -0.33292   -0.15218
114 H    -0.33166   -0.23495   -0.12673
115 H    -0.34415    0.20976   -0.13079

System changes: positions 

Initializing position-dependent things.

Density initialized from wave functions
                                               
                                               
                                               
                                               
                                               
                                               
                                               
                                               
                O                              
             O     H                           
          O    V Oi     Oi     O    O          
          O      O    O      Oi     Ti         
               OiH    Ti     O   VO            
                    O O   Ti     Ti            
        O   O  OO  Tii          O  O           
             Ti   O O   O  O    Ti             
             O   O      Tii   OTi    O         
          OTi     TO     O                     
           O    O      Ti     Oi               
         Ti     Ti     OO   O     O Ti         
              OO    OTii    Tii     O          
               Oi     O  O O    OOTi           
             O    OOTi    TO     O             
            TO     O    O      Ti              
          O      Ti     Ti                     
          Ti          O      O O               
               O                               
                                               
                                               
                                               
                                               

Positions:
   0 O      8.476572    1.911173    6.000000    ( 0.0000,  0.0000,  0.0000)
   1 O      3.305699    0.000000    6.000000    ( 0.0000,  0.0000,  0.0000)
   2 Ti     1.412752    0.000000    6.752957    ( 0.0000,  0.0000,  0.0000)
   3 Ti     6.583625    1.911173    6.752957    ( 0.0000,  0.0000,  0.0000)
   4 Ti     9.522250    1.911173    7.640878    ( 0.0000,  0.0000,  0.0000)
   5 Ti     4.351376    0.000000    7.640878    ( 0.0000,  0.0000,  0.0000)
   6 O      9.861551    0.000000    7.505914    ( 0.0000,  0.0000,  0.0000)
   7 O      4.690678    1.911173    7.505914    ( 0.0000,  0.0000,  0.0000)
   8 O      7.629303    1.911173    8.393834    ( 0.0000,  0.0000,  0.0000)
   9 O      2.458430    0.000000    8.393834    ( 0.0000,  0.0000,  0.0000)
  10 O      6.244323    0.000000    6.887921    ( 0.0000,  0.0000,  0.0000)
  11 O      1.073450    1.911173    6.887921    ( 0.0000,  0.0000,  0.0000)
  12 O      9.812773    1.905880    9.606097    ( 0.0000,  0.0000,  0.0000)
  13 O      4.641789    0.001703    9.579404    ( 0.0000,  0.0000,  0.0000)
  14 Ti     2.758312   11.441627   10.352787    ( 0.0000,  0.0000,  0.0000)
  15 Ti     7.935606    1.911711   10.314775    ( 0.0000,  0.0000,  0.0000)
  16 Ti     0.556785    1.923517   11.155484    ( 0.0000,  0.0000,  0.0000)
  17 Ti     5.670543    0.008513   11.126554    ( 0.0000,  0.0000,  0.0000)
  18 O      0.917950   11.454257   11.063418    ( 0.0000,  0.0000,  0.0000)
  19 O      6.085997    1.912887   11.084693    ( 0.0000,  0.0000,  0.0000)
  20 O      9.034659    1.973738   11.979847    ( 0.0000,  0.0000,  0.0000)
  21 O      3.878749   11.467770   11.955529    ( 0.0000,  0.0000,  0.0000)
  22 O      7.572426    0.008417   10.454111    ( 0.0000,  0.0000,  0.0000)
  23 O      2.391098    1.920713   10.454423    ( 0.0000,  0.0000,  0.0000)
  24 O      0.943578    1.741970   13.115695    ( 0.0000,  0.0000,  0.0000)
  25 O      6.122752   11.447647   13.073304    ( 0.0000,  0.0000,  0.0000)
  26 Ti     4.234059   11.439042   13.964153    ( 0.0000,  0.0000,  0.0000)
  27 Ti     9.360190    1.845203   13.849114    ( 0.0000,  0.0000,  0.0000)
  28 Ti     1.957238    1.881823   14.670028    ( 0.0000,  0.0000,  0.0000)
  29 Ti     7.026424    0.001551   14.627538    ( 0.0000,  0.0000,  0.0000)
  30 O      2.398151   11.438624   14.817639    ( 0.0000,  0.0000,  0.0000)
  31 O      7.554270    1.868896   14.772709    ( 0.0000,  0.0000,  0.0000)
  32 O      0.196034    2.141180   15.494232    ( 0.0000,  0.0000,  0.0000)
  33 O      5.388318    0.004500   15.458604    ( 0.0000,  0.0000,  0.0000)
  34 O      9.048641   11.458600   13.972303    ( 0.0000,  0.0000,  0.0000)
  35 O      3.830949    1.896782   13.974032    ( 0.0000,  0.0000,  0.0000)
  36 O      8.476572    5.733518    6.000000    ( 0.0000,  0.0000,  0.0000)
  37 O      3.305699    3.822345    6.000000    ( 0.0000,  0.0000,  0.0000)
  38 Ti     1.412752    3.822345    6.752957    ( 0.0000,  0.0000,  0.0000)
  39 Ti     6.583625    5.733518    6.752957    ( 0.0000,  0.0000,  0.0000)
  40 Ti     9.522250    5.733518    7.640878    ( 0.0000,  0.0000,  0.0000)
  41 Ti     4.351376    3.822345    7.640878    ( 0.0000,  0.0000,  0.0000)
  42 O      9.861551    3.822345    7.505914    ( 0.0000,  0.0000,  0.0000)
  43 O      4.690678    5.733518    7.505914    ( 0.0000,  0.0000,  0.0000)
  44 O      7.629303    5.733518    8.393834    ( 0.0000,  0.0000,  0.0000)
  45 O      2.458430    3.822345    8.393834    ( 0.0000,  0.0000,  0.0000)
  46 O      6.244323    3.822345    6.887921    ( 0.0000,  0.0000,  0.0000)
  47 O      1.073450    5.733518    6.887921    ( 0.0000,  0.0000,  0.0000)
  48 O      9.814621    5.733339    9.610267    ( 0.0000,  0.0000,  0.0000)
  49 O      4.646035    3.822320    9.602647    ( 0.0000,  0.0000,  0.0000)
  50 Ti     2.812872    3.821775   10.323125    ( 0.0000,  0.0000,  0.0000)
  51 Ti     7.931240    5.733070   10.314949    ( 0.0000,  0.0000,  0.0000)
  52 Ti     0.545108    5.721312   11.164402    ( 0.0000,  0.0000,  0.0000)
  53 Ti     5.714218    3.820436   11.203990    ( 0.0000,  0.0000,  0.0000)
  54 O      0.918381    3.822264   11.121529    ( 0.0000,  0.0000,  0.0000)
  55 O      6.084481    5.730126   11.084857    ( 0.0000,  0.0000,  0.0000)
  56 O      9.032254    5.683497   11.985256    ( 0.0000,  0.0000,  0.0000)
  57 O      3.903524    3.821819   11.970623    ( 0.0000,  0.0000,  0.0000)
  58 O      7.567742    3.821889   10.443716    ( 0.0000,  0.0000,  0.0000)
  59 O      2.392718    5.724224   10.460437    ( 0.0000,  0.0000,  0.0000)
  60 O      0.925046    5.864525   13.151145    ( 0.0000,  0.0000,  0.0000)
  61 O      6.182329    3.823417   13.143815    ( 0.0000,  0.0000,  0.0000)
  62 Ti     4.228494    3.822287   13.921867    ( 0.0000,  0.0000,  0.0000)
  63 Ti     9.363365    5.791805   13.859064    ( 0.0000,  0.0000,  0.0000)
  64 Ti     1.944349    5.749959   14.709888    ( 0.0000,  0.0000,  0.0000)
  65 Ti     7.018187    3.825566   14.825961    ( 0.0000,  0.0000,  0.0000)
  66 O      2.329758    3.815917   14.575643    ( 0.0000,  0.0000,  0.0000)
  67 O      7.548555    5.774219   14.779024    ( 0.0000,  0.0000,  0.0000)
  68 O      0.199893    5.509690   15.561212    ( 0.0000,  0.0000,  0.0000)
  69 O      5.335370    3.818829   15.487691    ( 0.0000,  0.0000,  0.0000)
  70 O      9.116321    3.827945   14.148407    ( 0.0000,  0.0000,  0.0000)
  71 O      3.827548    5.743296   13.976281    ( 0.0000,  0.0000,  0.0000)
  72 O      8.476572    9.555862    6.000000    ( 0.0000,  0.0000,  0.0000)
  73 O      3.305699    7.644690    6.000000    ( 0.0000,  0.0000,  0.0000)
  74 Ti     1.412752    7.644690    6.752957    ( 0.0000,  0.0000,  0.0000)
  75 Ti     6.583625    9.555862    6.752957    ( 0.0000,  0.0000,  0.0000)
  76 Ti     9.522250    9.555862    7.640878    ( 0.0000,  0.0000,  0.0000)
  77 Ti     4.351376    7.644690    7.640878    ( 0.0000,  0.0000,  0.0000)
  78 O      9.861551    7.644690    7.505914    ( 0.0000,  0.0000,  0.0000)
  79 O      4.690678    9.555862    7.505914    ( 0.0000,  0.0000,  0.0000)
  80 O      7.629303    9.555862    8.393834    ( 0.0000,  0.0000,  0.0000)
  81 O      2.458430    7.644690    8.393834    ( 0.0000,  0.0000,  0.0000)
  82 O      6.244323    7.644690    6.887921    ( 0.0000,  0.0000,  0.0000)
  83 O      1.073450    9.555862    6.887921    ( 0.0000,  0.0000,  0.0000)
  84 O      9.805882    9.550987    9.578982    ( 0.0000,  0.0000,  0.0000)
  85 O      4.636415    7.640190    9.595978    ( 0.0000,  0.0000,  0.0000)
  86 Ti     2.752748    7.660952   10.340304    ( 0.0000,  0.0000,  0.0000)
  87 Ti     7.921354    9.553496   10.354620    ( 0.0000,  0.0000,  0.0000)
  88 Ti     0.473171    9.554695   11.135961    ( 0.0000,  0.0000,  0.0000)
  89 Ti     5.681403    7.635872   11.127204    ( 0.0000,  0.0000,  0.0000)
  90 O      0.919659    7.646979   11.077075    ( 0.0000,  0.0000,  0.0000)
  91 O      6.083909    9.555368   11.074805    ( 0.0000,  0.0000,  0.0000)
  92 O      9.051117    9.553803   11.962034    ( 0.0000,  0.0000,  0.0000)
  93 O      7.574871    7.635826   10.452598    ( 0.0000,  0.0000,  0.0000)
  94 O      2.412838    9.549085   10.452395    ( 0.0000,  0.0000,  0.0000)
  95 O      0.973893    9.553541   13.068101    ( 0.0000,  0.0000,  0.0000)
  96 O      6.106882    7.657168   13.062609    ( 0.0000,  0.0000,  0.0000)
  97 Ti     4.240008    7.659051   13.977315    ( 0.0000,  0.0000,  0.0000)
  98 Ti     9.399441    9.550608   14.006337    ( 0.0000,  0.0000,  0.0000)
  99 Ti     1.869188    9.552030   14.613345    ( 0.0000,  0.0000,  0.0000)
 100 Ti     7.021581    7.641363   14.630005    ( 0.0000,  0.0000,  0.0000)
 101 O      2.391638    7.658776   14.820859    ( 0.0000,  0.0000,  0.0000)
 102 O      7.580009    9.556308   14.817635    ( 0.0000,  0.0000,  0.0000)
 103 O      0.233679    9.554210   15.459115    ( 0.0000,  0.0000,  0.0000)
 104 O      5.387420    7.636208   15.461625    ( 0.0000,  0.0000,  0.0000)
 105 O      9.048523    7.650280   13.978500    ( 0.0000,  0.0000,  0.0000)
 106 O      3.860331    9.547025   13.957490    ( 0.0000,  0.0000,  0.0000)
 107 V      2.324232    3.787242   17.638920    ( 0.0000,  0.0000,  0.0000)
 108 V      9.823561    3.819763   16.099687    ( 0.0000,  0.0000,  0.0000)
 109 O      2.814427    5.374216   16.736573    ( 0.0000,  0.0000,  0.0000)
 110 O      0.600846    3.804139   17.597131    ( 0.0000,  0.0000,  0.0000)
 111 O      8.273645    3.818360   16.668672    ( 0.0000,  0.0000,  0.0000)
 112 O      2.823498    3.810216   19.141007    ( 0.0000,  0.0000,  0.0000)
 113 O      2.794057    2.189446   16.737361    ( 0.0000,  0.0000,  0.0000)
 114 H      3.580386    5.891703   17.039264    ( 0.0000,  0.0000,  0.0000)
 115 H      3.579509    1.684998   17.015563    ( 0.0000,  0.0000,  0.0000)

Unit cell:
           periodic     x           y           z      points  spacing
  1. axis:    yes   10.341746    0.000000    0.000000    54     0.1915
  2. axis:    yes   -0.000000   11.467000    0.000000    60     0.1911
  3. axis:    no     0.000000    0.000000   23.497201   125     0.1880

  Lengths:  10.341746  11.467000  23.497201
  Angles:   90.000000  90.000000  90.000000

Effective grid spacing dv^(1/3) = 0.1902

                     log10-error:    total        iterations:
           time      wfs    density  energy       fermi  poisson
iter:   1  14:59:11  -2.42   +inf  -867.138775    4             
iter:   2  14:59:48  -3.32  -2.82  -867.024648    4             
iter:   3  15:00:26  -4.07  -2.93  -867.034560    3             
iter:   4  15:01:04  -3.53  -2.98  -867.007783    3             
iter:   5  15:01:41  -4.19  -3.15  -867.023956    3             
iter:   6  15:02:19  -4.40  -3.21  -867.009264    3             
iter:   7  15:02:56  -4.48  -3.35  -867.007021    2             
iter:   8  15:03:34  -5.17  -3.66  -867.007352    2             
iter:   9  15:04:12  -5.74  -3.77  -867.007313    2             
iter:  10  15:04:49  -5.65  -3.83  -867.007604    2             
iter:  11  15:05:27  -6.02  -3.96  -867.006566    2             
iter:  12  15:06:05  -6.57  -4.05  -867.007606    2             
iter:  13  15:06:42  -6.66  -4.10  -867.006950    2             
iter:  14  15:07:20  -6.53  -4.21  -867.007099    2             
iter:  15  15:07:57  -6.88  -4.37  -867.007034    2             
iter:  16  15:08:35  -6.77  -4.49  -867.006975    2             
iter:  17  15:09:13  -6.97  -4.64  -867.006886    2             
iter:  18  15:09:50  -7.31  -4.83  -867.007005    2             
iter:  19  15:10:28  -7.74  -4.90  -867.006891    2             

Converged after 19 iterations.

Dipole moment: (-9.544654, 8.111300, -0.592339) |e|*Ang

Energy contributions relative to reference atoms: (reference = -1042835.260475)

Kinetic:       +612.559957
Potential:     -813.977055
External:        +0.000000
XC:            -675.832258
Entropy (-ST):   -0.359001
Local:          +10.421965
--------------------------
Free energy:   -867.186391
Extrapolated:  -867.006891

Fermi level: 0.90980

Showing all kpts
 Kpt  Band  Eigenvalues  Occupancy
  0   456      0.22851    0.99890
  0   457      0.85079    0.64340
  0   458      1.04175    0.21090
  0   459      1.12496    0.10418

  1   456      0.22846    0.99890
  1   457      0.85103    0.64285
  1   458      1.04201    0.21048
  1   459      1.12466    0.10446



Forces in eV/Ang:
  0 O    -1.89299    0.00714    1.44242
  1 O    -1.94388    0.00542    1.38003
  2 Ti    3.60725   -0.03185    1.42400
  3 Ti    3.45382   -0.03162    1.28163
  4 Ti   -1.60827   -0.05971   -1.95366
  5 Ti   -1.78314   -0.01588   -2.14890
  6 O     0.86353    0.05771   -0.12649
  7 O     0.87925    0.04738   -0.12999
  8 O    -0.54311    0.01195   -0.32328
  9 O    -0.55227   -0.00217   -0.23767
 10 O    -0.30385    0.04259   -0.85319
 11 O    -0.33297    0.04260   -0.87401
 12 O    -0.16130   -0.00011   -0.08724
 13 O    -0.26391    0.00219   -0.04287
 14 Ti    0.19171    0.19074   -0.15161
 15 Ti    0.12516    0.03950    0.08524
 16 Ti   -0.10929   -0.12231    0.36911
 17 Ti    0.27196   -0.04568    0.31037
 18 O     0.06511    0.06585   -0.12218
 19 O     0.12615   -0.02741   -0.09085
 20 O    -0.03691    0.01374   -0.11950
 21 O    -0.08345    0.01379    0.13474
 22 O     0.01735   -0.04640    0.09777
 23 O     0.13987   -0.08995    0.03978
 24 O    -0.27573    0.08134   -0.06988
 25 O    -0.24654   -0.02035    0.02208
 26 Ti    0.07429    0.15390   -0.22815
 27 Ti    0.31397    0.31899    0.28864
 28 Ti    0.17067    0.09873    0.61693
 29 Ti    0.32480   -0.09253    0.17421
 30 O     0.09367   -0.05510    0.16940
 31 O     0.01293    0.09794   -0.08677
 32 O    -0.07071   -0.22431   -0.02230
 33 O     0.04736   -0.01040    0.17301
 34 O    -0.33189   -0.06145    0.27145
 35 O    -0.13469   -0.04587    0.07068
 36 O    -1.88332   -0.00746    1.45112
 37 O    -1.93119    0.00185    1.41125
 38 Ti    3.55028   -0.00959    1.32537
 39 Ti    3.45528    0.02157    1.27127
 40 Ti   -1.60530    0.05825   -1.93618
 41 Ti   -1.61523   -0.01545   -1.94117
 42 O     0.85634    0.00695   -0.10281
 43 O     0.87472   -0.01632   -0.11284
 44 O    -0.53278   -0.00554   -0.31467
 45 O    -0.53852    0.01149   -0.27505
 46 O    -0.30870    0.00572   -0.90355
 47 O    -0.33542   -0.03072   -0.88258
 48 O    -0.16447   -0.00559   -0.10900
 49 O    -0.09520   -0.00359   -0.05771
 50 Ti   -0.06491   -0.03608    0.10308
 51 Ti    0.13027   -0.01879    0.11718
 52 Ti   -0.07331    0.11853    0.41854
 53 Ti    0.17383    0.01900    0.18385
 54 O     0.28539    0.00520   -0.04984
 55 O     0.03073   -0.05908   -0.06771
 56 O    -0.05473   -0.00691   -0.11309
 57 O    -0.06612   -0.02039    0.02513
 58 O     0.03256   -0.00605    0.01999
 59 O     0.32751    0.17898    0.31434
 60 O    -0.17301   -0.05180   -0.24959
 61 O    -0.38405   -0.00511   -0.05940
 62 Ti    0.23317   -0.03471   -0.04211
 63 Ti    0.29011   -0.23759    0.35677
 64 Ti    0.20419   -0.05391    0.54422
 65 Ti    0.41542   -0.01500    0.48421
 66 O    -0.03332   -0.00075    0.00554
 67 O     0.01314   -0.10392   -0.06830
 68 O    -0.12512    0.21097   -0.30463
 69 O    -0.04318    0.00541    0.21875
 70 O    -0.12234   -0.05608   -0.10205
 71 O    -0.18449    0.16385   -0.23605
 72 O    -1.92665   -0.00166    1.37817
 73 O    -1.86155   -0.00593    1.34652
 74 Ti    3.60536    0.03934    1.48287
 75 Ti    3.61595    0.01014    1.42580
 76 Ti   -1.82650    0.00116   -2.13469
 77 Ti   -1.97157    0.03254   -1.97394
 78 O     0.85243   -0.07957   -0.12954
 79 O     0.85344   -0.03535   -0.10902
 80 O    -0.58816   -0.00194   -0.26070
 81 O    -0.43413   -0.02529   -0.51093
 82 O    -0.31188   -0.04738   -0.84663
 83 O    -0.30490   -0.01044   -0.85846
 84 O    -0.22918    0.00158   -0.03050
 85 O    -0.56590   -0.00605    0.66593
 86 Ti   -0.16664   -0.16262   -0.88815
 87 Ti    0.16884   -0.00961   -0.13618
 88 Ti    0.34993   -0.04615    0.31800
 89 Ti    0.81457    0.03882    0.28324
 90 O     0.09431   -0.03066    0.13146
 91 O    -0.02427    0.08660   -0.07117
 92 O    -0.12584   -0.00040    0.19581
 93 O     0.27574    0.04645    0.03163
 94 O     0.15728   -0.07460    0.33609
 95 O    -0.36761    0.01002   -0.00004
 96 O    -0.91041    0.01043   -0.36525
 97 Ti    0.43702   -0.15519    0.26918
 98 Ti    0.23449    0.00170   -0.36841
 99 Ti    0.29632   -0.06383    0.21356
100 Ti    0.12048    0.09868   -0.03119
101 O    -0.03636    0.06564    0.09973
102 O    -0.02877    0.00914    0.22765
103 O     0.04697    0.00746    0.19769
104 O     0.17920   -0.00263    0.48608
105 O    -0.29878    0.03959    0.30083
106 O    -0.32600   -0.10336   -0.16128
107 V     0.00753    0.02124    0.01486
108 V     0.09139   -0.01394    0.31005
109 O    -0.17439    0.02389   -0.31066
110 O    -0.10595   -0.03598   -0.18060
111 O    -0.34162    0.00141   -0.16824
112 O     0.13142   -0.03664    0.17722
113 O    -0.17259    0.03477   -0.26045
114 H     0.15600    0.10185    0.04321
115 H     0.10296   -0.08089    0.00685

System changes: positions 

Initializing position-dependent things.

Density initialized from wave functions
                                                
                                                
                                                
                                                
                                                
                                                
                                                
                                                
                                                
              O O   O                           
                    H    Ti     O    O          
           O   V OOi   O O   O      Ti          
           O   O             TO   V             
               OiH    TOO    O    O             
         O     OO   O      Ti     Ti            
             Tii    Tii    OO   O               
              O   OOO    OTi   TiOi             
          O Ti     Oi   TiO    O     O          
                O      Ti     TiO               
            O   TiO      O  O  O   O Ti         
         Ti     O    O Oi    Ti     O           
              OTi    Ti    OTi    O             
             O O    O O   O     O Ti            
                  O Ti     Oi     O             
             Oi     O    O      Ti              
           O     OTi    Ti     O                
          Ti          O      O                  
               O                                
                                                
                                                
                                                
                                                

Positions:
   0 O      8.476572    1.911173    6.000000    ( 0.0000,  0.0000,  0.0000)
   1 O      3.305699    0.000000    6.000000    ( 0.0000,  0.0000,  0.0000)
   2 Ti     1.412752    0.000000    6.752957    ( 0.0000,  0.0000,  0.0000)
   3 Ti     6.583625    1.911173    6.752957    ( 0.0000,  0.0000,  0.0000)
   4 Ti     9.522250    1.911173    7.640878    ( 0.0000,  0.0000,  0.0000)
   5 Ti     4.351376    0.000000    7.640878    ( 0.0000,  0.0000,  0.0000)
   6 O      9.861551    0.000000    7.505914    ( 0.0000,  0.0000,  0.0000)
   7 O      4.690678    1.911173    7.505914    ( 0.0000,  0.0000,  0.0000)
   8 O      7.629303    1.911173    8.393834    ( 0.0000,  0.0000,  0.0000)
   9 O      2.458430    0.000000    8.393834    ( 0.0000,  0.0000,  0.0000)
  10 O      6.244323    0.000000    6.887921    ( 0.0000,  0.0000,  0.0000)
  11 O      1.073450    1.911173    6.887921    ( 0.0000,  0.0000,  0.0000)
  12 O      9.806693    1.905869    9.602695    ( 0.0000,  0.0000,  0.0000)
  13 O      4.631882    0.001745    9.577028    ( 0.0000,  0.0000,  0.0000)
  14 Ti     2.764910   11.449041   10.346947    ( 0.0000,  0.0000,  0.0000)
  15 Ti     7.940095    1.913123   10.317918    ( 0.0000,  0.0000,  0.0000)
  16 Ti     0.552908    1.919094   11.169257    ( 0.0000,  0.0000,  0.0000)
  17 Ti     5.680949    0.006951   11.138367    ( 0.0000,  0.0000,  0.0000)
  18 O      0.920327   11.456641   11.059205    ( 0.0000,  0.0000,  0.0000)
  19 O      6.090503    1.911970   11.081504    ( 0.0000,  0.0000,  0.0000)
  20 O      9.033239    1.974245   11.974512    ( 0.0000,  0.0000,  0.0000)
  21 O      3.875928   11.468140   11.960822    ( 0.0000,  0.0000,  0.0000)
  22 O      7.572910    0.006855   10.457628    ( 0.0000,  0.0000,  0.0000)
  23 O      2.396232    1.917370   10.455783    ( 0.0000,  0.0000,  0.0000)
  24 O      0.933014    1.744707   13.111272    ( 0.0000,  0.0000,  0.0000)
  25 O      6.112259   11.446864   13.071016    ( 0.0000,  0.0000,  0.0000)
  26 Ti     4.235787   11.445380   13.955614    ( 0.0000,  0.0000,  0.0000)
  27 Ti     9.371267    1.857717   13.860691    ( 0.0000,  0.0000,  0.0000)
  28 Ti     1.963567    1.885964   14.693157    ( 0.0000,  0.0000,  0.0000)
  29 Ti     7.041883   -0.001666   14.635637    ( 0.0000,  0.0000,  0.0000)
  30 O      2.401655   11.436066   14.823504    ( 0.0000,  0.0000,  0.0000)
  31 O      7.554578    1.872193   14.769376    ( 0.0000,  0.0000,  0.0000)
  32 O      0.193372    2.132964   15.492995    ( 0.0000,  0.0000,  0.0000)
  33 O      5.388404    0.004101   15.466116    ( 0.0000,  0.0000,  0.0000)
  34 O      9.037004   11.455094   13.981871    ( 0.0000,  0.0000,  0.0000)
  35 O      3.826469    1.894854   13.976433    ( 0.0000,  0.0000,  0.0000)
  36 O      8.476572    5.733518    6.000000    ( 0.0000,  0.0000,  0.0000)
  37 O      3.305699    3.822345    6.000000    ( 0.0000,  0.0000,  0.0000)
  38 Ti     1.412752    3.822345    6.752957    ( 0.0000,  0.0000,  0.0000)
  39 Ti     6.583625    5.733518    6.752957    ( 0.0000,  0.0000,  0.0000)
  40 Ti     9.522250    5.733518    7.640878    ( 0.0000,  0.0000,  0.0000)
  41 Ti     4.351376    3.822345    7.640878    ( 0.0000,  0.0000,  0.0000)
  42 O      9.861551    3.822345    7.505914    ( 0.0000,  0.0000,  0.0000)
  43 O      4.690678    5.733518    7.505914    ( 0.0000,  0.0000,  0.0000)
  44 O      7.629303    5.733518    8.393834    ( 0.0000,  0.0000,  0.0000)
  45 O      2.458430    3.822345    8.393834    ( 0.0000,  0.0000,  0.0000)
  46 O      6.244323    3.822345    6.887921    ( 0.0000,  0.0000,  0.0000)
  47 O      1.073450    5.733518    6.887921    ( 0.0000,  0.0000,  0.0000)
  48 O      9.808522    5.733128    9.606170    ( 0.0000,  0.0000,  0.0000)
  49 O      4.642649    3.822230    9.600516    ( 0.0000,  0.0000,  0.0000)
  50 Ti     2.810192    3.819960   10.326513    ( 0.0000,  0.0000,  0.0000)
  51 Ti     7.935863    5.732905   10.319187    ( 0.0000,  0.0000,  0.0000)
  52 Ti     0.541971    5.725394   11.179746    ( 0.0000,  0.0000,  0.0000)
  53 Ti     5.720835    3.821012   11.210792    ( 0.0000,  0.0000,  0.0000)
  54 O      0.928633    3.822573   11.119813    ( 0.0000,  0.0000,  0.0000)
  55 O      6.085098    5.728327   11.082714    ( 0.0000,  0.0000,  0.0000)
  56 O      9.030355    5.683224   11.980196    ( 0.0000,  0.0000,  0.0000)
  57 O      3.901370    3.821212   11.971743    ( 0.0000,  0.0000,  0.0000)
  58 O      7.568766    3.821565   10.444482    ( 0.0000,  0.0000,  0.0000)
  59 O      2.404784    5.731430   10.471557    ( 0.0000,  0.0000,  0.0000)
  60 O      0.918307    5.862899   13.140062    ( 0.0000,  0.0000,  0.0000)
  61 O      6.167568    3.823268   13.139089    ( 0.0000,  0.0000,  0.0000)
  62 Ti     4.235920    3.820448   13.920313    ( 0.0000,  0.0000,  0.0000)
  63 Ti     9.373080    5.782312   13.873199    ( 0.0000,  0.0000,  0.0000)
  64 Ti     1.951519    5.746999   14.731039    ( 0.0000,  0.0000,  0.0000)
  65 Ti     7.037428    3.825205   14.843902    ( 0.0000,  0.0000,  0.0000)
  66 O      2.328974    3.816010   14.575523    ( 0.0000,  0.0000,  0.0000)
  67 O      7.549087    5.770395   14.776329    ( 0.0000,  0.0000,  0.0000)
  68 O      0.195533    5.517534   15.549735    ( 0.0000,  0.0000,  0.0000)
  69 O      5.331196    3.819009   15.496847    ( 0.0000,  0.0000,  0.0000)
  70 O      9.112237    3.825989   14.144694    ( 0.0000,  0.0000,  0.0000)
  71 O      3.821285    5.750060   13.967647    ( 0.0000,  0.0000,  0.0000)
  72 O      8.476572    9.555862    6.000000    ( 0.0000,  0.0000,  0.0000)
  73 O      3.305699    7.644690    6.000000    ( 0.0000,  0.0000,  0.0000)
  74 Ti     1.412752    7.644690    6.752957    ( 0.0000,  0.0000,  0.0000)
  75 Ti     6.583625    9.555862    6.752957    ( 0.0000,  0.0000,  0.0000)
  76 Ti     9.522250    9.555862    7.640878    ( 0.0000,  0.0000,  0.0000)
  77 Ti     4.351376    7.644690    7.640878    ( 0.0000,  0.0000,  0.0000)
  78 O      9.861551    7.644690    7.505914    ( 0.0000,  0.0000,  0.0000)
  79 O      4.690678    9.555862    7.505914    ( 0.0000,  0.0000,  0.0000)
  80 O      7.629303    9.555862    8.393834    ( 0.0000,  0.0000,  0.0000)
  81 O      2.458430    7.644690    8.393834    ( 0.0000,  0.0000,  0.0000)
  82 O      6.244323    7.644690    6.887921    ( 0.0000,  0.0000,  0.0000)
  83 O      1.073450    9.555862    6.887921    ( 0.0000,  0.0000,  0.0000)
  84 O      9.797364    9.551054    9.577118    ( 0.0000,  0.0000,  0.0000)
  85 O      4.616010    7.639977    9.621024    ( 0.0000,  0.0000,  0.0000)
  86 Ti     2.746036    7.655134   10.307200    ( 0.0000,  0.0000,  0.0000)
  87 Ti     7.927180    9.552669   10.349442    ( 0.0000,  0.0000,  0.0000)
  88 Ti     0.485631    9.553171   11.147744    ( 0.0000,  0.0000,  0.0000)
  89 Ti     5.712351    7.637276   11.137942    ( 0.0000,  0.0000,  0.0000)
  90 O      0.923530    7.645850   11.082049    ( 0.0000,  0.0000,  0.0000)
  91 O      6.082502    9.558132   11.072632    ( 0.0000,  0.0000,  0.0000)
  92 O      9.046955    9.553817   11.969591    ( 0.0000,  0.0000,  0.0000)
  93 O      7.584285    7.637449   10.453851    ( 0.0000,  0.0000,  0.0000)
  94 O      2.418688    9.545630   10.464365    ( 0.0000,  0.0000,  0.0000)
  95 O      0.959433    9.553834   13.064985    ( 0.0000,  0.0000,  0.0000)
  96 O      6.071581    7.657593   13.043803    ( 0.0000,  0.0000,  0.0000)
  97 Ti     4.255905    7.653297   13.988001    ( 0.0000,  0.0000,  0.0000)
  98 Ti     9.405961    9.550633   13.992636    ( 0.0000,  0.0000,  0.0000)
  99 Ti     1.882796    9.550045   14.623196    ( 0.0000,  0.0000,  0.0000)
 100 Ti     7.029830    7.644662   14.632773    ( 0.0000,  0.0000,  0.0000)
 101 O      2.390658    7.661662   14.823956    ( 0.0000,  0.0000,  0.0000)
 102 O      7.579252    9.556970   14.825519    ( 0.0000,  0.0000,  0.0000)
 103 O      0.234580    9.554463   15.467500    ( 0.0000,  0.0000,  0.0000)
 104 O      5.391642    7.636158   15.479060    ( 0.0000,  0.0000,  0.0000)
 105 O      9.038233    7.652819   13.989011    ( 0.0000,  0.0000,  0.0000)
 106 O      3.848772    9.542679   13.951603    ( 0.0000,  0.0000,  0.0000)
 107 V      2.323700    3.787917   17.641869    ( 0.0000,  0.0000,  0.0000)
 108 V      9.825569    3.819246   16.111874    ( 0.0000,  0.0000,  0.0000)
 109 O      2.811883    5.377927   16.726442    ( 0.0000,  0.0000,  0.0000)
 110 O      0.597407    3.802800   17.590411    ( 0.0000,  0.0000,  0.0000)
 111 O      8.262976    3.818399   16.662166    ( 0.0000,  0.0000,  0.0000)
 112 O      2.827897    3.808887   19.145611    ( 0.0000,  0.0000,  0.0000)
 113 O      2.791218    2.188292   16.728909    ( 0.0000,  0.0000,  0.0000)
 114 H      3.582717    5.893106   17.039684    ( 0.0000,  0.0000,  0.0000)
 115 H      3.580238    1.684034   17.014914    ( 0.0000,  0.0000,  0.0000)

Unit cell:
           periodic     x           y           z      points  spacing
  1. axis:    yes   10.341746    0.000000    0.000000    54     0.1915
  2. axis:    yes   -0.000000   11.467000    0.000000    60     0.1911
  3. axis:    no     0.000000    0.000000   23.497201   125     0.1880

  Lengths:  10.341746  11.467000  23.497201
  Angles:   90.000000  90.000000  90.000000

Effective grid spacing dv^(1/3) = 0.1902

                     log10-error:    total        iterations:
           time      wfs    density  energy       fermi  poisson
iter:   1  15:11:29  -2.04   +inf  -867.630090    4             
iter:   2  15:12:06  -2.92  -2.63  -867.332880    5             
iter:   3  15:12:44  -3.50  -2.78  -867.303713    3             
iter:   4  15:13:22  -3.45  -2.85  -867.295167    3             
iter:   5  15:13:59  -3.61  -2.98  -867.269786    3             
iter:   6  15:14:37  -4.21  -3.05  -867.286753    3             
iter:   7  15:15:14  -4.53  -3.14  -867.278468    3             
iter:   8  15:15:52  -4.62  -3.30  -867.276081    2             
iter:   9  15:16:30  -5.06  -3.51  -867.276808    3             
iter:  10  15:17:07  -5.22  -3.64  -867.276226    3             
iter:  11  15:17:45  -5.85  -3.79  -867.275839    2             
iter:  12  15:18:22  -5.94  -3.87  -867.275837    2             
iter:  13  15:19:00  -5.98  -3.99  -867.275788    2             
iter:  14  15:19:38  -6.40  -4.14  -867.276430    2             
iter:  15  15:20:15  -6.58  -4.24  -867.275879    2             
iter:  16  15:20:53  -6.91  -4.34  -867.276258    2             
iter:  17  15:21:30  -6.75  -4.40  -867.276051    2             
iter:  18  15:22:08  -6.93  -4.54  -867.276068    2             
iter:  19  15:22:45  -7.06  -4.62  -867.276088    2             
iter:  20  15:23:23  -7.39  -4.68  -867.276124    2             
iter:  21  15:24:01  -7.51  -4.89  -867.276058    2             

Converged after 21 iterations.

Dipole moment: (-9.616903, 8.105523, -0.583237) |e|*Ang

Energy contributions relative to reference atoms: (reference = -1042835.260475)

Kinetic:       +605.301025
Potential:     -808.091673
External:        +0.000000
XC:            -674.791506
Entropy (-ST):   -0.344317
Local:          +10.478253
--------------------------
Free energy:   -867.448217
Extrapolated:  -867.276058

Fermi level: 0.89393

Showing all kpts
 Kpt  Band  Eigenvalues  Occupancy
  0   456      0.40024    0.99287
  0   457      0.81143    0.69530
  0   458      1.04663    0.17844
  0   459      1.12916    0.08688

  1   456      0.40011    0.99288
  1   457      0.81177    0.69458
  1   458      1.04674    0.17827
  1   459      1.12895    0.08705



Forces in eV/Ang:
  0 O    -1.92627    0.00545    1.41357
  1 O    -1.97048   -0.00123    1.35863
  2 Ti    3.61673   -0.00195    1.44791
  3 Ti    3.49516   -0.02362    1.33998
  4 Ti   -1.62311   -0.05070   -1.87416
  5 Ti   -1.76679    0.02472   -2.06566
  6 O     0.88091    0.03934   -0.15389
  7 O     0.89303    0.03875   -0.16036
  8 O    -0.58643    0.00718   -0.39534
  9 O    -0.61513   -0.01566   -0.34165
 10 O    -0.29840    0.02342   -0.85925
 11 O    -0.31984    0.03609   -0.88373
 12 O    -0.04741    0.00215    0.01742
 13 O    -0.07067    0.00516    0.15226
 14 Ti    0.17594    0.06834   -0.03148
 15 Ti    0.10178    0.02441    0.02892
 16 Ti   -0.05545   -0.07302    0.13645
 17 Ti    0.05675   -0.02488    0.07810
 18 O     0.02263    0.01113   -0.10976
 19 O     0.08957   -0.03422   -0.06436
 20 O    -0.00211    0.00860    0.08931
 21 O    -0.04808    0.03727    0.03290
 22 O     0.03957   -0.04265    0.08701
 23 O     0.07390   -0.04005    0.05977
 24 O    -0.08201    0.08841    0.31075
 25 O     0.00612   -0.01489    0.34819
 26 Ti    0.15724   -0.06729   -0.04836
 27 Ti    0.15982   -0.00682    0.00862
 28 Ti    0.13268   -0.06081    0.27976
 29 Ti   -0.20795   -0.09012   -0.00759
 30 O     0.05022    0.06374    0.16622
 31 O     0.02468    0.10871   -0.04211
 32 O    -0.03658   -0.10951    0.11967
 33 O     0.21693   -0.00105   -0.07134
 34 O    -0.25337    0.16147    0.24701
 35 O    -0.13432    0.04229    0.08541
 36 O    -1.92174   -0.00256    1.42044
 37 O    -1.95741    0.00685    1.38514
 38 Ti    3.57586   -0.03086    1.37575
 39 Ti    3.51996   -0.01130    1.32362
 40 Ti   -1.62973    0.02982   -1.84058
 41 Ti   -1.62330   -0.04777   -1.81597
 42 O     0.87421    0.01319   -0.13308
 43 O     0.87222    0.05649   -0.11814
 44 O    -0.58515    0.00663   -0.37945
 45 O    -0.57813    0.02238   -0.33418
 46 O    -0.30212    0.01680   -0.91654
 47 O    -0.30842    0.00915   -0.88970
 48 O    -0.04838   -0.00066    0.00558
 49 O    -0.04236   -0.00792    0.00636
 50 Ti    0.01811    0.03603    0.11930
 51 Ti    0.15356   -0.13208    0.05001
 52 Ti    0.02837    0.07771    0.20490
 53 Ti    0.01975    0.00220    0.06714
 54 O     0.19295   -0.00328   -0.04690
 55 O     0.11468   -0.05578   -0.08994
 56 O    -0.03581   -0.00031    0.08859
 57 O    -0.05839   -0.04184    0.00588
 58 O     0.04923    0.00975    0.01882
 59 O     0.18504    0.01724    0.29888
 60 O    -0.02030   -0.07322    0.21217
 61 O    -0.19113   -0.01066    0.31188
 62 Ti    0.29146    0.06032   -0.04995
 63 Ti    0.19261    0.05093    0.04656
 64 Ti    0.21913    0.14762    0.10270
 65 Ti   -0.22148   -0.02467    0.34382
 66 O    -0.08940   -0.00335    0.06027
 67 O    -0.00814   -0.07922   -0.05168
 68 O    -0.10942    0.08139   -0.08547
 69 O     0.25882    0.01078    0.01810
 70 O    -0.09786   -0.04232   -0.05975
 71 O    -0.18673   -0.05143   -0.15185
 72 O    -1.96267   -0.00498    1.35978
 73 O    -1.83752   -0.00458    1.37744
 74 Ti    3.49628    0.03086    1.40606
 75 Ti    3.64621    0.03498    1.43529
 76 Ti   -1.80497    0.02020   -2.05094
 77 Ti   -1.84633    0.02418   -1.76613
 78 O     0.89039   -0.06756   -0.15795
 79 O     0.85536   -0.09977   -0.11161
 80 O    -0.65409   -0.00926   -0.34073
 81 O    -0.53620   -0.02128   -0.77079
 82 O    -0.34083   -0.03929   -0.82446
 83 O    -0.28343   -0.04421   -0.85862
 84 O    -0.06485   -0.00259    0.17496
 85 O    -0.33408   -0.00399    0.31378
 86 Ti   -0.04292   -0.10767   -0.35405
 87 Ti    0.21480    0.11361   -0.04651
 88 Ti    0.23262   -0.02857    0.09830
 89 Ti    0.23488    0.03060   -0.00911
 90 O    -0.02000    0.00018    0.04339
 91 O     0.07249    0.08549   -0.11017
 92 O    -0.11058   -0.00702    0.03782
 93 O     0.28753    0.03612    0.03040
 94 O     0.07002    0.03835    0.30713
 95 O    -0.13780    0.01942    0.37321
 96 O    -0.33710    0.00656    0.45018
 97 Ti    0.17915   -0.01777    0.14093
 98 Ti    0.33244    0.00354   -0.09324
 99 Ti   -0.14799   -0.07638   -0.01781
100 Ti   -0.26561    0.10653   -0.36300
101 O    -0.08264   -0.07577    0.17022
102 O    -0.04569   -0.03752    0.17341
103 O     0.17110    0.00936   -0.07417
104 O     0.39859   -0.01782    0.38430
105 O    -0.25552   -0.14789    0.27292
106 O    -0.24411    0.01366   -0.11965
107 V     0.16535    0.02597    0.11082
108 V    -0.01940   -0.01256    0.07879
109 O     0.03286    0.14655   -0.12888
110 O    -0.09314   -0.01452   -0.10670
111 O    -0.31762    0.00205   -0.13732
112 O     0.04811   -0.03128    0.04000
113 O     0.00600   -0.08497   -0.12591
114 H    -0.06114   -0.03015   -0.08018
115 H    -0.07934    0.02809   -0.09230

System changes: positions 

Initializing position-dependent things.

Density initialized from wave functions
                                                
                                                
                                                
                                                
                                                
                                                
                                                
                                                
                                                
              O O   O                           
                    H    Ti     O    O          
           O   V OOi   O O   O      Ti          
           O   O             TO   V             
               OiH    TOO    O    O             
         O     OO   O      Ti     Ti            
             Tii    Tii    OO   O               
              O   OOO    OTi   TiOi             
          O Ti     Oi   TiO    O     O          
                 O     OTi    TiO               
            O   TiO      O  O  O   O Ti         
         Ti     O    O Oi    Ti     O           
              OTi    Ti    OTi    O             
             O O    O O   O     O Ti            
                  O Ti     Oi     O             
             Oi     O    O      Ti              
           O     OTi    Ti     O                
          Ti          O      O                  
               O                                
                                                
                                                
                                                
                                                

Positions:
   0 O      8.476572    1.911173    6.000000    ( 0.0000,  0.0000,  0.0000)
   1 O      3.305699    0.000000    6.000000    ( 0.0000,  0.0000,  0.0000)
   2 Ti     1.412752    0.000000    6.752957    ( 0.0000,  0.0000,  0.0000)
   3 Ti     6.583625    1.911173    6.752957    ( 0.0000,  0.0000,  0.0000)
   4 Ti     9.522250    1.911173    7.640878    ( 0.0000,  0.0000,  0.0000)
   5 Ti     4.351376    0.000000    7.640878    ( 0.0000,  0.0000,  0.0000)
   6 O      9.861551    0.000000    7.505914    ( 0.0000,  0.0000,  0.0000)
   7 O      4.690678    1.911173    7.505914    ( 0.0000,  0.0000,  0.0000)
   8 O      7.629303    1.911173    8.393834    ( 0.0000,  0.0000,  0.0000)
   9 O      2.458430    0.000000    8.393834    ( 0.0000,  0.0000,  0.0000)
  10 O      6.244323    0.000000    6.887921    ( 0.0000,  0.0000,  0.0000)
  11 O      1.073450    1.911173    6.887921    ( 0.0000,  0.0000,  0.0000)
  12 O      9.802603    1.905907    9.601282    ( 0.0000,  0.0000,  0.0000)
  13 O      4.625381    0.001855    9.578657    ( 0.0000,  0.0000,  0.0000)
  14 Ti     2.771660   11.454377   10.343250    ( 0.0000,  0.0000,  0.0000)
  15 Ti     7.944414    1.914316   10.320088    ( 0.0000,  0.0000,  0.0000)
  16 Ti     0.549895    1.915398   11.179064    ( 0.0000,  0.0000,  0.0000)
  17 Ti     5.687512    0.005718   11.146076    ( 0.0000,  0.0000,  0.0000)
  18 O      0.921970   11.458031   11.054945    ( 0.0000,  0.0000,  0.0000)
  19 O      6.094558    1.910839   11.078645    ( 0.0000,  0.0000,  0.0000)
  20 O      9.032459    1.974678   11.973261    ( 0.0000,  0.0000,  0.0000)
  21 O      3.873652   11.469041   11.964321    ( 0.0000,  0.0000,  0.0000)
  22 O      7.573906    0.005258   10.461174    ( 0.0000,  0.0000,  0.0000)
  23 O      2.400332    1.914849   10.457671    ( 0.0000,  0.0000,  0.0000)
  24 O      0.925823    1.747798   13.114683    ( 0.0000,  0.0000,  0.0000)
  25 O      6.106418   11.446141   13.075571    ( 0.0000,  0.0000,  0.0000)
  26 Ti     4.239427   11.447445   13.950294    ( 0.0000,  0.0000,  0.0000)
  27 Ti     9.379868    1.864174   13.867119    ( 0.0000,  0.0000,  0.0000)
  28 Ti     1.969547    1.886993   14.710768    ( 0.0000,  0.0000,  0.0000)
  29 Ti     7.047042   -0.005070   14.640420    ( 0.0000,  0.0000,  0.0000)
  30 O      2.404486   11.435867   14.829734    ( 0.0000,  0.0000,  0.0000)
  31 O      7.555162    1.875964   14.766756    ( 0.0000,  0.0000,  0.0000)
  32 O      0.191247    2.126600   15.494706    ( 0.0000,  0.0000,  0.0000)
  33 O      5.392142    0.003873   15.468941    ( 0.0000,  0.0000,  0.0000)
  34 O      9.026186   11.456112   13.991622    ( 0.0000,  0.0000,  0.0000)
  35 O      3.821664    1.894670   13.979326    ( 0.0000,  0.0000,  0.0000)
  36 O      8.476572    5.733518    6.000000    ( 0.0000,  0.0000,  0.0000)
  37 O      3.305699    3.822345    6.000000    ( 0.0000,  0.0000,  0.0000)
  38 Ti     1.412752    3.822345    6.752957    ( 0.0000,  0.0000,  0.0000)
  39 Ti     6.583625    5.733518    6.752957    ( 0.0000,  0.0000,  0.0000)
  40 Ti     9.522250    5.733518    7.640878    ( 0.0000,  0.0000,  0.0000)
  41 Ti     4.351376    3.822345    7.640878    ( 0.0000,  0.0000,  0.0000)
  42 O      9.861551    3.822345    7.505914    ( 0.0000,  0.0000,  0.0000)
  43 O      4.690678    5.733518    7.505914    ( 0.0000,  0.0000,  0.0000)
  44 O      7.629303    5.733518    8.393834    ( 0.0000,  0.0000,  0.0000)
  45 O      2.458430    3.822345    8.393834    ( 0.0000,  0.0000,  0.0000)
  46 O      6.244323    3.822345    6.887921    ( 0.0000,  0.0000,  0.0000)
  47 O      1.073450    5.733518    6.887921    ( 0.0000,  0.0000,  0.0000)
  48 O      9.804459    5.733006    9.604222    ( 0.0000,  0.0000,  0.0000)
  49 O      4.640143    3.822041    9.599598    ( 0.0000,  0.0000,  0.0000)
  50 Ti     2.809093    3.819560   10.330501    ( 0.0000,  0.0000,  0.0000)
  51 Ti     7.941323    5.730299   10.322300    ( 0.0000,  0.0000,  0.0000)
  52 Ti     0.540783    5.728905   11.191648    ( 0.0000,  0.0000,  0.0000)
  53 Ti     5.724640    3.821273   11.215597    ( 0.0000,  0.0000,  0.0000)
  54 O      0.937663    3.822722   11.118032    ( 0.0000,  0.0000,  0.0000)
  55 O      6.087561    5.726461   11.079935    ( 0.0000,  0.0000,  0.0000)
  56 O      9.028719    5.683073   11.979089    ( 0.0000,  0.0000,  0.0000)
  57 O      3.899219    3.820100   11.972530    ( 0.0000,  0.0000,  0.0000)
  58 O      7.570224    3.821556   10.445280    ( 0.0000,  0.0000,  0.0000)
  59 O      2.414689    5.735699   10.483165    ( 0.0000,  0.0000,  0.0000)
  60 O      0.914343    5.860691   13.138060    ( 0.0000,  0.0000,  0.0000)
  61 O      6.155859    3.822990   13.141986    ( 0.0000,  0.0000,  0.0000)
  62 Ti     4.245150    3.820511   13.918479    ( 0.0000,  0.0000,  0.0000)
  63 Ti     9.381436    5.778300   13.881726    ( 0.0000,  0.0000,  0.0000)
  64 Ti     1.959537    5.748141   14.744288    ( 0.0000,  0.0000,  0.0000)
  65 Ti     7.044413    3.824608   14.860154    ( 0.0000,  0.0000,  0.0000)
  66 O      2.326928    3.816052   14.576568    ( 0.0000,  0.0000,  0.0000)
  67 O      7.549204    5.766819   14.773794    ( 0.0000,  0.0000,  0.0000)
  68 O      0.191187    5.523182   15.542106    ( 0.0000,  0.0000,  0.0000)
  69 O      5.333205    3.819316   15.502369    ( 0.0000,  0.0000,  0.0000)
  70 O      9.108372    3.824184   14.141612    ( 0.0000,  0.0000,  0.0000)
  71 O      3.814510    5.752709   13.960179    ( 0.0000,  0.0000,  0.0000)
  72 O      8.476572    9.555862    6.000000    ( 0.0000,  0.0000,  0.0000)
  73 O      3.305699    7.644690    6.000000    ( 0.0000,  0.0000,  0.0000)
  74 Ti     1.412752    7.644690    6.752957    ( 0.0000,  0.0000,  0.0000)
  75 Ti     6.583625    9.555862    6.752957    ( 0.0000,  0.0000,  0.0000)
  76 Ti     9.522250    9.555862    7.640878    ( 0.0000,  0.0000,  0.0000)
  77 Ti     4.351376    7.644690    7.640878    ( 0.0000,  0.0000,  0.0000)
  78 O      9.861551    7.644690    7.505914    ( 0.0000,  0.0000,  0.0000)
  79 O      4.690678    9.555862    7.505914    ( 0.0000,  0.0000,  0.0000)
  80 O      7.629303    9.555862    8.393834    ( 0.0000,  0.0000,  0.0000)
  81 O      2.458430    7.644690    8.393834    ( 0.0000,  0.0000,  0.0000)
  82 O      6.244323    7.644690    6.887921    ( 0.0000,  0.0000,  0.0000)
  83 O      1.073450    9.555862    6.887921    ( 0.0000,  0.0000,  0.0000)
  84 O      9.791736    9.551038    9.579518    ( 0.0000,  0.0000,  0.0000)
  85 O      4.599060    7.639792    9.640368    ( 0.0000,  0.0000,  0.0000)
  86 Ti     2.741484    7.650062   10.283093    ( 0.0000,  0.0000,  0.0000)
  87 Ti     7.934420    9.554421   10.345804    ( 0.0000,  0.0000,  0.0000)
  88 Ti     0.496502    9.551908   11.155694    ( 0.0000,  0.0000,  0.0000)
  89 Ti     5.733163    7.638607   11.143214    ( 0.0000,  0.0000,  0.0000)
  90 O      0.925236    7.645298   11.085504    ( 0.0000,  0.0000,  0.0000)
  91 O      6.083065    9.561079   11.069461    ( 0.0000,  0.0000,  0.0000)
  92 O      9.042807    9.553690   11.974320    ( 0.0000,  0.0000,  0.0000)
  93 O      7.594649    7.638970   10.455168    ( 0.0000,  0.0000,  0.0000)
  94 O      2.423101    9.544346   10.476596    ( 0.0000,  0.0000,  0.0000)
  95 O      0.948839    9.554350   13.069658    ( 0.0000,  0.0000,  0.0000)
  96 O      6.045974    7.657966   13.041119    ( 0.0000,  0.0000,  0.0000)
  97 Ti     4.267458    7.650059   13.996716    ( 0.0000,  0.0000,  0.0000)
  98 Ti     9.415079    9.550700   13.983815    ( 0.0000,  0.0000,  0.0000)
  99 Ti     1.887868    9.547641   14.628796    ( 0.0000,  0.0000,  0.0000)
 100 Ti     7.030378    7.648373   14.628599    ( 0.0000,  0.0000,  0.0000)
 101 O      2.388612    7.661732   14.828793    ( 0.0000,  0.0000,  0.0000)
 102 O      7.578074    9.556679   14.832827    ( 0.0000,  0.0000,  0.0000)
 103 O      0.238210    9.554776   15.470674    ( 0.0000,  0.0000,  0.0000)
 104 O      5.400892    7.635779   15.495601    ( 0.0000,  0.0000,  0.0000)
 105 O      9.028105    7.651523   13.999702    ( 0.0000,  0.0000,  0.0000)
 106 O      3.838111    9.540522   13.946174    ( 0.0000,  0.0000,  0.0000)
 107 V      2.326513    3.788745   17.647049    ( 0.0000,  0.0000,  0.0000)
 108 V      9.825377    3.818721   16.120000    ( 0.0000,  0.0000,  0.0000)
 109 O      2.813524    5.384489   16.719436    ( 0.0000,  0.0000,  0.0000)
 110 O      0.593984    3.801821   17.584781    ( 0.0000,  0.0000,  0.0000)
 111 O      8.252013    3.818454   16.655850    ( 0.0000,  0.0000,  0.0000)
 112 O      2.830845    3.807574   19.147646    ( 0.0000,  0.0000,  0.0000)
 113 O      2.791937    2.184530   16.722697    ( 0.0000,  0.0000,  0.0000)
 114 H      3.580628    5.891825   17.037516    ( 0.0000,  0.0000,  0.0000)
 115 H      3.577169    1.685298   17.012113    ( 0.0000,  0.0000,  0.0000)

Unit cell:
           periodic     x           y           z      points  spacing
  1. axis:    yes   10.341746    0.000000    0.000000    54     0.1915
  2. axis:    yes   -0.000000   11.467000    0.000000    60     0.1911
  3. axis:    no     0.000000    0.000000   23.497201   125     0.1880

  Lengths:  10.341746  11.467000  23.497201
  Angles:   90.000000  90.000000  90.000000

Effective grid spacing dv^(1/3) = 0.1902

                     log10-error:    total        iterations:
           time      wfs    density  energy       fermi  poisson
iter:   1  15:25:01  -2.38   +inf  -867.470522    3             
iter:   2  15:25:39  -3.27  -2.86  -867.381316    4             
iter:   3  15:26:16  -3.96  -2.97  -867.393818    3             
iter:   4  15:26:54  -3.91  -3.03  -867.379339    3             
iter:   5  15:27:31  -4.13  -3.18  -867.385391    3             
iter:   6  15:28:09  -4.37  -3.29  -867.376108    3             
iter:   7  15:28:47  -4.88  -3.47  -867.378036    3             
iter:   8  15:29:24  -5.29  -3.64  -867.378098    2             
iter:   9  15:30:02  -5.32  -3.77  -867.378167    2             
iter:  10  15:30:39  -5.90  -3.92  -867.378411    2             
iter:  11  15:31:17  -5.96  -4.01  -867.379013    2             
iter:  12  15:31:54  -6.18  -4.10  -867.378326    2             
iter:  13  15:32:32  -6.55  -4.22  -867.378878    2             
iter:  14  15:33:09  -6.83  -4.29  -867.378340    2             
iter:  15  15:33:47  -6.92  -4.45  -867.378401    2             
iter:  16  15:34:25  -6.82  -4.56  -867.378480    2             
iter:  17  15:35:02  -7.19  -4.74  -867.378498    2             
iter:  18  15:35:40  -7.35  -4.81  -867.378518    2             
iter:  19  15:36:17  -7.45  -4.94  -867.378387    2             

Converged after 19 iterations.

Dipole moment: (-9.524540, 7.844334, -0.586168) |e|*Ang

Energy contributions relative to reference atoms: (reference = -1042835.260475)

Kinetic:       +604.697641
Potential:     -807.494637
External:        +0.000000
XC:            -674.895855
Entropy (-ST):   -0.349637
Local:          +10.489283
--------------------------
Free energy:   -867.553206
Extrapolated:  -867.378387

Fermi level: 0.88690

Showing all kpts
 Kpt  Band  Eigenvalues  Occupancy
  0   456      0.48903    0.98163
  0   457      0.79471    0.71544
  0   458      1.04680    0.16813
  0   459      1.12654    0.08345

  1   456      0.48882    0.98167
  1   457      0.79513    0.71459
  1   458      1.04681    0.16811
  1   459      1.12638    0.08357



Forces in eV/Ang:
  0 O    -1.93943    0.00332    1.39907
  1 O    -1.96932   -0.00752    1.35461
  2 Ti    3.61384    0.02776    1.45603
  3 Ti    3.51956   -0.01250    1.36942
  4 Ti   -1.63417   -0.03849   -1.83966
  5 Ti   -1.76404    0.06394   -2.02743
  6 O     0.88707    0.01793   -0.16255
  7 O     0.89605    0.02231   -0.17072
  8 O    -0.60780    0.00276   -0.42438
  9 O    -0.63834   -0.03020   -0.39491
 10 O    -0.29983    0.00411   -0.86459
 11 O    -0.31380    0.02538   -0.89103
 12 O     0.03612    0.00430    0.08628
 13 O     0.06265    0.00464    0.19733
 14 Ti    0.11795    0.02251    0.04351
 15 Ti    0.07308    0.00590   -0.01314
 16 Ti    0.01257   -0.03486    0.01534
 17 Ti   -0.04804   -0.00161   -0.02465
 18 O    -0.01431   -0.02363   -0.07430
 19 O     0.05317   -0.02333   -0.02780
 20 O     0.02509    0.00349    0.15174
 21 O     0.01061    0.04906   -0.00100
 22 O     0.05654   -0.00815    0.08022
 23 O     0.02580   -0.00646    0.07871
 24 O     0.02185    0.06902    0.40542
 25 O     0.07230   -0.02141    0.31426
 26 Ti    0.10979   -0.13701    0.07566
 27 Ti    0.00189   -0.14685   -0.07358
 28 Ti    0.12294   -0.09114    0.12467
 29 Ti   -0.26785   -0.04980    0.00207
 30 O     0.03387    0.06842    0.14397
 31 O     0.00835    0.07986   -0.01638
 32 O    -0.03926   -0.00903    0.21437
 33 O     0.17806    0.00059   -0.12194
 34 O    -0.12911    0.16257    0.21038
 35 O    -0.07897    0.06982    0.08024
 36 O    -1.93893    0.00227    1.40337
 37 O    -1.96262    0.01098    1.37084
 38 Ti    3.59149   -0.04910    1.40673
 39 Ti    3.56783   -0.04307    1.35178
 40 Ti   -1.65424    0.00273   -1.79171
 41 Ti   -1.64092   -0.07520   -1.74610
 42 O     0.87937    0.01762   -0.14651
 43 O     0.86045    0.12264   -0.10896
 44 O    -0.61328    0.01301   -0.41251
 45 O    -0.59499    0.03497   -0.35568
 46 O    -0.29982    0.02536   -0.92326
 47 O    -0.28976    0.04859   -0.89114
 48 O     0.05580   -0.00016    0.09053
 49 O     0.01627   -0.00746    0.05746
 50 Ti    0.05847    0.03635    0.09237
 51 Ti    0.15992   -0.15537   -0.00830
 52 Ti    0.06673    0.01536    0.07317
 53 Ti   -0.07043   -0.02364    0.00038
 54 O     0.09359    0.00036   -0.02738
 55 O     0.13393   -0.01003   -0.07282
 56 O     0.00621    0.00239    0.16094
 57 O    -0.02008   -0.05081    0.00452
 58 O     0.05428   -0.00200    0.02834
 59 O     0.09207   -0.03396    0.27492
 60 O     0.06100   -0.05801    0.36493
 61 O    -0.11406   -0.01169    0.34911
 62 Ti    0.19925    0.05989   -0.03527
 63 Ti    0.02004    0.15022   -0.05922
 64 Ti    0.19549    0.14453   -0.06743
 65 Ti   -0.31889   -0.01625    0.25648
 66 O    -0.07927    0.01236    0.09486
 67 O    -0.02431   -0.05117   -0.06217
 68 O    -0.08415   -0.02029    0.06492
 69 O     0.24429    0.01672    0.01113
 70 O    -0.03419   -0.01501   -0.00765
 71 O    -0.13429   -0.11160   -0.10313
 72 O    -1.97176   -0.00773    1.35638
 73 O    -1.80598   -0.00280    1.41683
 74 Ti    3.38613    0.01969    1.31686
 75 Ti    3.66937    0.05567    1.43504
 76 Ti   -1.79978    0.03483   -2.00226
 77 Ti   -1.74659    0.01230   -1.69757
 78 O     0.91653   -0.05052   -0.16813
 79 O     0.84633   -0.14960   -0.09741
 80 O    -0.68227   -0.01105   -0.39305
 81 O    -0.60647   -0.01690   -0.93550
 82 O    -0.37112   -0.02841   -0.80675
 83 O    -0.26983   -0.07330   -0.85575
 84 O     0.06813   -0.00316    0.22759
 85 O    -0.10940   -0.00242    0.09146
 86 Ti   -0.03729   -0.04917    0.03958
 87 Ti    0.21397    0.15456    0.01815
 88 Ti    0.12168    0.00887   -0.03221
 89 Ti   -0.05297    0.02777   -0.14660
 90 O    -0.07344    0.01404   -0.00956
 91 O     0.09998    0.02954   -0.10156
 92 O    -0.03956   -0.00706   -0.01876
 93 O     0.23941    0.01477    0.05045
 94 O     0.02439    0.04328    0.27414
 95 O    -0.04354    0.01923    0.38419
 96 O    -0.04809    0.01174    0.57956
 97 Ti   -0.04823    0.06629    0.19932
 98 Ti    0.17171    0.01661    0.09227
 99 Ti   -0.20715   -0.03280   -0.01664
100 Ti   -0.23751    0.06157   -0.28541
101 O    -0.07785   -0.11224    0.19130
102 O    -0.01963   -0.04455    0.09094
103 O     0.17353    0.00783   -0.13762
104 O     0.35981   -0.02677    0.26924
105 O    -0.15188   -0.14042    0.26256
106 O    -0.14888    0.03139   -0.09439
107 V     0.12514    0.02853   -0.13013
108 V    -0.07861   -0.01348   -0.05583
109 O    -0.19371   -0.06619   -0.10935
110 O    -0.01562    0.00362   -0.05094
111 O    -0.23515    0.00195   -0.10113
112 O     0.06236   -0.02348    0.16845
113 O    -0.18350    0.08085   -0.09268
114 H     0.15116    0.13118   -0.01501
115 H     0.10342   -0.10287   -0.04636

System changes: positions 

Initializing position-dependent things.

Density initialized from wave functions
                                                
                                                
                                                
                                                
                                                
                                                
                                                
                                                
                                                
[...]
 104 O      5.390905    7.609206   15.557788    ( 0.0000,  0.0000,  0.0000)
 105 O      8.986963    7.628046   14.107708    ( 0.0000,  0.0000,  0.0000)
 106 O      3.841382    9.530274   14.131384    ( 0.0000,  0.0000,  0.0000)
 107 V      7.386252    1.818420   17.729597    ( 0.0000,  0.0000,  0.0000)
 108 V      4.599366    1.885199   16.313958    ( 0.0000,  0.0000,  0.0000)
 109 O      2.927803    1.910201   16.678544    ( 0.0000,  0.0000,  0.0000)
 110 O      5.601913    1.910288   17.802951    ( 0.0000,  0.0000,  0.0000)
 111 O      8.051900    1.761441   19.173327    ( 0.0000,  0.0000,  0.0000)
 112 O      7.861522    3.424381   16.764260    ( 0.0000,  0.0000,  0.0000)
 113 O      7.810990    0.414316   16.721516    ( 0.0000,  0.0000,  0.0000)
 114 H     10.154480    1.109311   16.304011    ( 0.0000,  0.0000,  0.0000)
 115 H      8.689907    3.884956   17.003018    ( 0.0000,  0.0000,  0.0000)

Unit cell:
           periodic     x           y           z      points  spacing
  1. axis:    yes   10.341746    0.000000    0.000000    54     0.1915
  2. axis:    yes   -0.000000   11.467000    0.000000    60     0.1911
  3. axis:    no     0.000000    0.000000   23.497201   125     0.1880

  Lengths:  10.341746  11.467000  23.497201
  Angles:   90.000000  90.000000  90.000000

Effective grid spacing dv^(1/3) = 0.1902

                     log10-error:    total        iterations:
           time      wfs    density  energy       fermi  poisson
iter:   1  16:24:34  -4.27   +inf  -867.444523    3             
iter:   2  16:25:12  -4.90  -3.65  -867.432113    4             
iter:   3  16:25:49  -5.75  -3.67  -867.435726    3             
iter:   4  16:26:27  -5.12  -3.93  -867.434510    3             
iter:   5  16:27:04  -5.72  -4.09  -867.434734    2             
iter:   6  16:27:42  -6.03  -4.16  -867.434515    2             
iter:   7  16:28:19  -6.15  -4.29  -867.434494    2             
iter:   8  16:28:57  -6.86  -4.49  -867.434291    2             
iter:   9  16:29:34  -7.08  -4.56  -867.434765    2             
iter:  10  16:30:12  -7.59  -4.73  -867.434671    2             

Converged after 10 iterations.

Dipole moment: (-9.307997, 3.080407, -0.875402) |e|*Ang

Energy contributions relative to reference atoms: (reference = -1042835.260475)

Kinetic:       +575.494694
Potential:     -784.133457
External:        +0.000000
XC:            -669.063586
Entropy (-ST):   -0.459041
Local:          +10.497199
--------------------------
Free energy:   -867.664191
Extrapolated:  -867.434671

Fermi level: 0.86684

Showing all kpts
 Kpt  Band  Eigenvalues  Occupancy
  0   456      0.27338    0.99736
  0   457      0.87415    0.48173
  0   458      0.99762    0.21286
  0   459      1.03675    0.15458

  1   456      0.27366    0.99735
  1   457      0.87402    0.48206
  1   458      1.00200    0.20560
  1   459      1.03472    0.15725



Forces in eV/Ang:
  0 O    -1.88737    0.00897    1.44491
  1 O    -1.83458    0.02051    1.44730
  2 Ti    3.47657   -0.08147    1.36196
  3 Ti    3.56913   -0.07928    1.30707
  4 Ti   -1.57761   -0.03748   -1.56324
  5 Ti   -1.60254   -0.13530   -1.50031
  6 O     0.87139    0.06593   -0.12223
  7 O     0.81007    0.18599   -0.02968
  8 O    -0.49760   -0.00991   -0.15127
  9 O    -0.46585    0.06599   -0.07794
 10 O    -0.34865    0.08054   -0.84243
 11 O    -0.29203    0.07036   -0.82477
 12 O    -0.00081   -0.00100   -0.00122
 13 O     0.00128    0.00042    0.00044
 14 Ti   -0.00350   -0.00031    0.00157
 15 Ti   -0.00253   -0.00041    0.00398
 16 Ti    0.00153    0.00058    0.00330
 17 Ti    0.00458   -0.00140    0.00304
 18 O    -0.00115   -0.00041   -0.00221
 19 O    -0.00045   -0.00178   -0.00141
 20 O    -0.00246   -0.00280   -0.00121
 21 O    -0.00263   -0.00245   -0.00190
 22 O    -0.00027   -0.00282    0.00017
 23 O     0.00226   -0.00167    0.00586
 24 O     0.00066   -0.00142   -0.00059
 25 O     0.00049   -0.00407    0.00096
 26 Ti   -0.00123   -0.00322   -0.00142
 27 Ti   -0.00047    0.00670    0.00088
 28 Ti   -0.00264    0.00735   -0.00434
 29 Ti    0.00362   -0.00069   -0.00401
 30 O     0.00142    0.00211   -0.00167
 31 O    -0.00229   -0.00227    0.00073
 32 O     0.00146   -0.00181    0.00175
 33 O    -0.00004   -0.00274   -0.00088
 34 O    -0.00419   -0.00464   -0.00298
 35 O    -0.00382   -0.00846   -0.00102
 36 O    -1.87797   -0.01497    1.40307
 37 O    -1.64532   -0.00721    1.57001
 38 Ti    3.19173    0.03356    1.20119
 39 Ti    3.71127    0.10758    1.48297
 40 Ti   -1.83376    0.07212   -1.77475
 41 Ti   -1.65054    0.02995   -1.41786
 42 O     0.91143   -0.04035   -0.12510
 43 O     0.79891   -0.24437   -0.01387
 44 O    -0.46089   -0.02361   -0.15306
 45 O    -0.44353   -0.00824   -0.40915
 46 O    -0.42923   -0.04394   -0.81466
 47 O    -0.28044   -0.11646   -0.89876
 48 O    -0.00196   -0.00101   -0.00389
 49 O    -0.00342   -0.00126    0.00129
 50 Ti   -0.00015   -0.00319    0.00228
 51 Ti   -0.00443   -0.00094    0.00360
 52 Ti   -0.00036   -0.00238    0.00348
 53 Ti    0.00279   -0.00071   -0.00054
 54 O     0.00043   -0.00113   -0.00263
 55 O    -0.00057    0.00232   -0.00051
 56 O    -0.00223   -0.00144   -0.00149
 57 O    -0.00037   -0.00021    0.00327
 58 O    -0.00065   -0.00199    0.00327
 59 O     0.00016   -0.00140   -0.00157
 60 O    -0.00170   -0.00109   -0.00309
 61 Ti   -0.00232    0.00258    0.00026
 62 Ti    0.00231   -0.00825   -0.00132
 63 Ti   -0.00162   -0.00417    0.00159
 64 Ti    0.00766    0.00756   -0.00580
 65 O    -0.00259   -0.00702   -0.00134
 66 O     0.00183   -0.00631    0.00141
 67 O    -0.00095    0.00018   -0.00006
 68 O    -0.00069   -0.00015   -0.00610
 69 O    -0.00141   -0.00427    0.00786
 70 O     0.00252    0.00109   -0.00390
 71 O    -1.86793    0.00693    1.39952
 72 O    -1.84112   -0.01493    1.40046
 73 Ti    3.62259    0.04864    1.52943
 74 Ti    3.65652   -0.03163    1.52653
 75 Ti   -1.83987   -0.02965   -1.78966
 76 Ti   -1.85835    0.10065   -1.76604
 77 O     0.85786   -0.02271   -0.10630
 78 O     0.83520    0.04488   -0.10370
 79 O    -0.46664    0.00302   -0.16455
 80 O    -0.46472   -0.05083   -0.08713
 81 O    -0.33488   -0.03681   -0.91394
 82 O    -0.30328    0.04588   -0.90783
 83 O    -0.00205    0.00017   -0.00134
 84 O    -0.00329   -0.00106   -0.00187
 85 Ti   -0.00126    0.00050    0.00237
 86 Ti   -0.00171    0.00103    0.00241
 87 Ti    0.00202   -0.00031    0.00037
 88 Ti    0.00155   -0.00000    0.00118
 89 O    -0.00275   -0.00148   -0.00169
 90 O    -0.00185   -0.00301   -0.00193
 91 O    -0.00207    0.00088   -0.00366
 92 O    -0.00298    0.00170   -0.00449
 93 O    -0.00195    0.00086    0.00162
 94 O    -0.00033   -0.00057    0.00062
 95 O     0.00058   -0.00357    0.00419
 96 O    -0.00192   -0.00030    0.00560
 97 Ti    0.00368   -0.00142   -0.00340
 98 Ti    0.00236   -0.00361   -0.00575
 99 Ti   -0.00156   -0.00550   -0.00354
100 Ti   -0.00160   -0.00503   -0.00587
101 O    -0.00088   -0.00049    0.00115
102 O    -0.00239    0.00071   -0.00058
103 O    -0.00051   -0.00418   -0.00293
104 O     0.00271   -0.00300    0.00135
105 O     0.00298   -0.00023   -0.00339
106 O     0.00604    0.00233    0.00330
107 V     0.00031   -0.00501    0.01546
108 V     0.00644    0.00140   -0.00102
109 O    -0.00781   -0.00139    0.00120
110 O    -0.00288   -0.00370    0.00413
111 O    -0.00290    0.00200   -0.01041
112 O    -0.00662   -0.00626   -0.00026
113 O     0.00274   -0.00159    0.00022
114 H    -0.00298   -0.00490    0.00374
115 H     0.00819    0.00212    0.00170

System changes: positions 

Initializing position-dependent things.

Density initialized from wave functions
                                                 
                                                 
                                                 
                                                 
                                                 
                                                 
                                                 
                                                 
                                                 
              O     O           Ti               
                  Ti     Ti O   O    O           
                  O    O O   O H     Ti          
           O   O      OTi  V Oi   O              
               TO   V  O     Oi                  
        O      O    O      Oi    HTiO            
             TiTi   OiO   O O   O                
              O   OO     OTO   TiOi              
          O Ti     Ti     O    O      O          
            O    O      Ti     Ti                
                  O      O  O  O   O Ti          
          Ti  O TO   O TO     Ti     O           
         O     Ti           TiO   O              
             O  O   O O   O      OTi             
                    Ti     Oi     O              
             Oi     O    O      Ti               
           O      Ti     Ti     O                
           Ti          O     O                   
               O                                 
                                                 
                                                 
                                                 
                                                 

Positions:
   0 O      8.476572    1.911173    6.000000    ( 0.0000,  0.0000,  0.0000)
   1 O      3.305699    0.000000    6.000000    ( 0.0000,  0.0000,  0.0000)
   2 Ti     1.412752    0.000000    6.752957    ( 0.0000,  0.0000,  0.0000)
   3 Ti     6.583625    1.911173    6.752957    ( 0.0000,  0.0000,  0.0000)
   4 Ti     9.522250    1.911173    7.640878    ( 0.0000,  0.0000,  0.0000)
   5 Ti     4.351376    0.000000    7.640878    ( 0.0000,  0.0000,  0.0000)
   6 O      9.861551    0.000000    7.505914    ( 0.0000,  0.0000,  0.0000)
   7 O      4.690678    1.911173    7.505914    ( 0.0000,  0.0000,  0.0000)
   8 O      7.629303    1.911173    8.393834    ( 0.0000,  0.0000,  0.0000)
   9 O      2.458430    0.000000    8.393834    ( 0.0000,  0.0000,  0.0000)
  10 O      6.244323    0.000000    6.887921    ( 0.0000,  0.0000,  0.0000)
  11 O      1.073450    1.911173    6.887921    ( 0.0000,  0.0000,  0.0000)
  12 O      9.829349    1.911543    9.634149    ( 0.0000,  0.0000,  0.0000)
  13 O      4.649476   11.471190    9.642241    ( 0.0000,  0.0000,  0.0000)
  14 Ti     2.814278   11.458135   10.332423    ( 0.0000,  0.0000,  0.0000)
  15 Ti     7.974167    1.902056   10.325130    ( 0.0000,  0.0000,  0.0000)
  16 Ti     0.569488    1.903284   11.266174    ( 0.0000,  0.0000,  0.0000)
  17 Ti     5.741084   11.457507   11.288009    ( 0.0000,  0.0000,  0.0000)
  18 O      0.945433    0.000643   11.112616    ( 0.0000,  0.0000,  0.0000)
  19 O      6.132135    1.899806   11.172961    ( 0.0000,  0.0000,  0.0000)
  20 O      9.050600    1.880465   11.998893    ( 0.0000,  0.0000,  0.0000)
  21 O      3.859196    0.006883   12.021946    ( 0.0000,  0.0000,  0.0000)
  22 O      7.587935   -0.004144   10.514816    ( 0.0000,  0.0000,  0.0000)
  23 O      2.445349    1.920059   10.559016    ( 0.0000,  0.0000,  0.0000)
  24 O      0.883632    1.921419   13.260862    ( 0.0000,  0.0000,  0.0000)
  25 O      6.047515   11.311754   13.247910    ( 0.0000,  0.0000,  0.0000)
  26 Ti     4.207711   11.383548   13.903959    ( 0.0000,  0.0000,  0.0000)
  27 Ti     9.323528    1.884738   13.875871    ( 0.0000,  0.0000,  0.0000)
  28 Ti     1.944342    1.879501   14.910824    ( 0.0000,  0.0000,  0.0000)
  29 Ti     7.157782   11.454017   14.968765    ( 0.0000,  0.0000,  0.0000)
  30 O      2.340806   11.415639   14.819328    ( 0.0000,  0.0000,  0.0000)
  31 O      7.439523    1.901865   14.500703    ( 0.0000,  0.0000,  0.0000)
  32 O      0.096701    1.789077   15.659614    ( 0.0000,  0.0000,  0.0000)
  33 O      5.254720    0.270520   15.601166    ( 0.0000,  0.0000,  0.0000)
  34 O      8.973055   11.439985   14.108258    ( 0.0000,  0.0000,  0.0000)
  35 O      3.802052    1.897291   14.123656    ( 0.0000,  0.0000,  0.0000)
  36 O      8.476572    5.733518    6.000000    ( 0.0000,  0.0000,  0.0000)
  37 O      3.305699    3.822345    6.000000    ( 0.0000,  0.0000,  0.0000)
  38 Ti     1.412752    3.822345    6.752957    ( 0.0000,  0.0000,  0.0000)
  39 Ti     6.583625    5.733518    6.752957    ( 0.0000,  0.0000,  0.0000)
  40 Ti     9.522250    5.733518    7.640878    ( 0.0000,  0.0000,  0.0000)
  41 Ti     4.351376    3.822345    7.640878    ( 0.0000,  0.0000,  0.0000)
  42 O      9.861551    3.822345    7.505914    ( 0.0000,  0.0000,  0.0000)
  43 O      4.690678    5.733518    7.505914    ( 0.0000,  0.0000,  0.0000)
  44 O      7.629303    5.733518    8.393834    ( 0.0000,  0.0000,  0.0000)
  45 O      2.458430    3.822345    8.393834    ( 0.0000,  0.0000,  0.0000)
  46 O      6.244323    3.822345    6.887921    ( 0.0000,  0.0000,  0.0000)
  47 O      1.073450    5.733518    6.887921    ( 0.0000,  0.0000,  0.0000)
  48 O      9.820790    5.728439    9.615351    ( 0.0000,  0.0000,  0.0000)
  49 O      4.596999    3.810314    9.723290    ( 0.0000,  0.0000,  0.0000)
  50 Ti     2.751150    3.827233   10.291397    ( 0.0000,  0.0000,  0.0000)
  51 Ti     7.971731    5.739173   10.364084    ( 0.0000,  0.0000,  0.0000)
  52 Ti     0.515031    5.739001   11.211680    ( 0.0000,  0.0000,  0.0000)
  53 Ti     5.767287    3.821438   11.257981    ( 0.0000,  0.0000,  0.0000)
  54 O      0.938122    3.822535   11.143394    ( 0.0000,  0.0000,  0.0000)
  55 O      6.112540    5.741189   11.082869    ( 0.0000,  0.0000,  0.0000)
  56 O      9.051783    5.723541   12.019574    ( 0.0000,  0.0000,  0.0000)
  57 O      7.625613    3.812855   10.508376    ( 0.0000,  0.0000,  0.0000)
  58 O      2.444834    5.722222   10.553965    ( 0.0000,  0.0000,  0.0000)
  59 O      0.909868    5.791143   13.165470    ( 0.0000,  0.0000,  0.0000)
  60 O      6.012579    3.955938   13.180607    ( 0.0000,  0.0000,  0.0000)
  61 Ti     4.177146    3.851126   13.961287    ( 0.0000,  0.0000,  0.0000)
  62 Ti     9.389139    5.731202   14.042490    ( 0.0000,  0.0000,  0.0000)
  63 Ti     1.840501    5.734329   14.726424    ( 0.0000,  0.0000,  0.0000)
  64 Ti     7.092110    3.799523   14.798462    ( 0.0000,  0.0000,  0.0000)
  65 O      2.307886    3.833548   14.795383    ( 0.0000,  0.0000,  0.0000)
  66 O      7.534709    5.722052   14.895821    ( 0.0000,  0.0000,  0.0000)
  67 O      0.200020    5.703604   15.560270    ( 0.0000,  0.0000,  0.0000)
  68 O      5.336384    3.488199   15.602018    ( 0.0000,  0.0000,  0.0000)
  69 O      8.985737    3.805991   14.104897    ( 0.0000,  0.0000,  0.0000)
  70 O      3.815498    5.720013   14.076628    ( 0.0000,  0.0000,  0.0000)
  71 O      8.476572    9.555862    6.000000    ( 0.0000,  0.0000,  0.0000)
  72 O      3.305699    7.644690    6.000000    ( 0.0000,  0.0000,  0.0000)
  73 Ti     1.412752    7.644690    6.752957    ( 0.0000,  0.0000,  0.0000)
  74 Ti     6.583625    9.555862    6.752957    ( 0.0000,  0.0000,  0.0000)
  75 Ti     9.522250    9.555862    7.640878    ( 0.0000,  0.0000,  0.0000)
  76 Ti     4.351376    7.644690    7.640878    ( 0.0000,  0.0000,  0.0000)
  77 O      9.861551    7.644690    7.505914    ( 0.0000,  0.0000,  0.0000)
  78 O      4.690678    9.555862    7.505914    ( 0.0000,  0.0000,  0.0000)
  79 O      7.629303    9.555862    8.393834    ( 0.0000,  0.0000,  0.0000)
  80 O      2.458430    7.644690    8.393834    ( 0.0000,  0.0000,  0.0000)
  81 O      6.244323    7.644690    6.887921    ( 0.0000,  0.0000,  0.0000)
  82 O      1.073450    9.555862    6.887921    ( 0.0000,  0.0000,  0.0000)
  83 O      9.812442    9.563593    9.615527    ( 0.0000,  0.0000,  0.0000)
  84 O      4.638283    7.641772    9.615662    ( 0.0000,  0.0000,  0.0000)
  85 Ti     2.804327    7.646911   10.375180    ( 0.0000,  0.0000,  0.0000)
  86 Ti     7.971148    9.547265   10.366607    ( 0.0000,  0.0000,  0.0000)
  87 Ti     0.519916    9.556961   11.203719    ( 0.0000,  0.0000,  0.0000)
  88 Ti     5.693909    7.643753   11.203688    ( 0.0000,  0.0000,  0.0000)
  89 O      0.934503    7.642920   11.079938    ( 0.0000,  0.0000,  0.0000)
  90 O      6.108223    9.546999   11.090742    ( 0.0000,  0.0000,  0.0000)
  91 O      9.056771    9.550219   12.019054    ( 0.0000,  0.0000,  0.0000)
  92 O      3.888064    7.656280   12.022880    ( 0.0000,  0.0000,  0.0000)
  93 O      7.599307    7.644416   10.506509    ( 0.0000,  0.0000,  0.0000)
  94 O      2.423571    9.558708   10.508956    ( 0.0000,  0.0000,  0.0000)
  95 O      0.921129    9.494650   13.159578    ( 0.0000,  0.0000,  0.0000)
  96 O      6.102722    7.639533   13.162719    ( 0.0000,  0.0000,  0.0000)
  97 Ti     4.241986    7.625458   14.057312    ( 0.0000,  0.0000,  0.0000)
  98 Ti     9.393134    9.525738   14.046460    ( 0.0000,  0.0000,  0.0000)
  99 Ti     1.850475    9.523587   14.725731    ( 0.0000,  0.0000,  0.0000)
 100 Ti     7.035336    7.630819   14.727071    ( 0.0000,  0.0000,  0.0000)
 101 O      2.400869    7.625799   14.930861    ( 0.0000,  0.0000,  0.0000)
 102 O      7.544399    9.521695   14.927454    ( 0.0000,  0.0000,  0.0000)
 103 O      0.214708    9.547316   15.554196    ( 0.0000,  0.0000,  0.0000)
 104 O      5.390975    7.609141   15.557851    ( 0.0000,  0.0000,  0.0000)
 105 O      8.987054    7.628038   14.107721    ( 0.0000,  0.0000,  0.0000)
 106 O      3.841525    9.530330   14.131375    ( 0.0000,  0.0000,  0.0000)
 107 V      7.386149    1.818303   17.729701    ( 0.0000,  0.0000,  0.0000)
 108 V      4.599357    1.885216   16.313959    ( 0.0000,  0.0000,  0.0000)
 109 O      2.927738    1.910201   16.678600    ( 0.0000,  0.0000,  0.0000)
 110 O      5.601823    1.910222   17.803069    ( 0.0000,  0.0000,  0.0000)
 111 O      8.051993    1.761434   19.173313    ( 0.0000,  0.0000,  0.0000)
 112 O      7.861427    3.424353   16.764360    ( 0.0000,  0.0000,  0.0000)
 113 O      7.811041    0.414278   16.721508    ( 0.0000,  0.0000,  0.0000)
 114 H     10.154377    1.109238   16.304115    ( 0.0000,  0.0000,  0.0000)
 115 H      8.690156    3.884996   17.003009    ( 0.0000,  0.0000,  0.0000)

Unit cell:
           periodic     x           y           z      points  spacing
  1. axis:    yes   10.341746    0.000000    0.000000    54     0.1915
  2. axis:    yes   -0.000000   11.467000    0.000000    60     0.1911
  3. axis:    no     0.000000    0.000000   23.497201   125     0.1880

  Lengths:  10.341746  11.467000  23.497201
  Angles:   90.000000  90.000000  90.000000

Effective grid spacing dv^(1/3) = 0.1902

                     log10-error:    total        iterations:
           time      wfs    density  energy       fermi  poisson
iter:   1  16:31:12  -5.92   +inf  -867.435257    3             
iter:   2  16:31:50  -6.51  -4.44  -867.433416    3             
iter:   3  16:32:27  -7.21  -4.44  -867.434615    3             
iter:   4  16:33:05  -7.25  -4.73  -867.434609    2             
iter:   5  16:33:43  -6.91  -4.90  -867.434603    2             
iter:   6  16:34:20  -7.16  -5.14  -867.434661    2             
iter:   7  16:34:58  -8.28  -5.22  -867.434629    2             

Converged after 7 iterations.

Dipole moment: (-9.317543, 3.105647, -0.875661) |e|*Ang

Energy contributions relative to reference atoms: (reference = -1042835.260475)

Kinetic:       +575.466451
Potential:     -784.113942
External:        +0.000000
XC:            -669.060704
Entropy (-ST):   -0.459149
Local:          +10.503141
--------------------------
Free energy:   -867.664203
Extrapolated:  -867.434629

Fermi level: 0.86677

Showing all kpts
 Kpt  Band  Eigenvalues  Occupancy
  0   456      0.27283    0.99737
  0   457      0.87423    0.48137
  0   458      0.99748    0.21298
  0   459      1.03656    0.15474

  1   456      0.27311    0.99737
  1   457      0.87410    0.48171
  1   458      1.00188    0.20570
  1   459      1.03452    0.15743


slurmstepd: error: *** JOB 2698741 ON s74n34 CANCELLED AT 2019-07-03T16:35:04 ***
