
  ___ ___ ___ _ _ _  
 |   |   |_  | | | | 
 | | | | | . | | | | 
 |__ |  _|___|_____|  1.5.1
 |___|_|             

User:   siva@s82n44.grendel.cscaa.dk
Date:   Sat May 25 02:51:27 2019
Arch:   x86_64
Pid:    25949
Python: 3.6.3
gpaw:   /home/siva/gpaw-1.5.1/gpaw
_gpaw:  /home/siva/gpaw-1.5.1/build/bin.linux-x86_64-3.6/gpaw-python
ase:    /home/siva/env1.5/lib/python3.6/site-packages/ase (version 3.17.0)
numpy:  /home/siva/env1.5/lib/python3.6/site-packages/numpy (version 1.16.0)
scipy:  /home/siva/env1.5/lib/python3.6/site-packages/scipy (version 1.2.0)
units:  Angstrom and eV
cores:  28
Extra parameters: {'blacs': True}

Input parameters:
  basis: dzp
  kpts: [3 3 1]
  mode: {ecut: 500.0,
         gammacentered: False,
         name: pw}
  xc: PBE

System changes: positions, numbers, cell, pbc, initial_charges, initial_magmoms 

Initialize ...

O-setup:
  name: Oxygen
  id: 32ecd46bf208036f09c70b0ec9a88b78
  Z: 8
  valence: 6
  core: 2
  charge: 0.0
  file: /home/wido/sw/gpaw/basis/gpaw-setups-0.9.20000/O.PBE.gz
  cutoffs: 0.67(comp), 1.17(filt), 0.83(core), lmax=2
  valence states:
                energy  radius
    2s(2.00)   -23.961   0.688
    2p(4.00)    -9.029   0.598
    *s           3.251   0.688
    *p          18.182   0.598
    *d           0.000   0.619

  LCAO basis set for O:
    Name: dzp
    File: /home/wido/sw/gpaw/basis/gpaw-setups-0.9.20000/O.dzp.basis.gz
    Number of radial functions: 5
    Number of spherical harmonics: 13
      l=0, rc=4.3438 Bohr: 2s-sz confined orbital
      l=1, rc=5.3906 Bohr: 2p-sz confined orbital
      l=0, rc=2.2969 Bohr: 2s-dz split-valence wave
      l=1, rc=2.8906 Bohr: 2p-dz split-valence wave
      l=2, rc=5.3906 Bohr: d-type Gaussian polarization

Ti-setup:
  name: Titanium
  id: d282db07e62ae71292040bf25b25ccdd
  Z: 22
  valence: 12
  core: 10
  charge: 0.0
  file: /home/wido/sw/gpaw/basis/gpaw-setups-0.9.20000/Ti.PBE.gz
  cutoffs: 1.22(comp), 2.23(filt), 1.02(core), lmax=2
  valence states:
                energy  radius
    3s(2.00)   -62.623   1.270
    4s(2.00)    -4.466   1.270
    3p(6.00)   -38.862   1.058
    4p(0.00)    -1.466   1.058
    3d(2.00)    -4.258   1.058
    *d          22.953   1.058

  LCAO basis set for Ti:
    Name: dzp
    File: /home/wido/sw/gpaw/basis/gpaw-setups-0.9.20000/Ti.dzp.basis.gz
    Number of radial functions: 11
    Number of spherical harmonics: 29
      l=0, rc=3.4375 Bohr: 3s-sz confined orbital
      l=0, rc=9.9062 Bohr: 4s-sz confined orbital
      l=1, rc=3.8906 Bohr: 3p-sz confined orbital
      l=1, rc=13.1094 Bohr: 4p-sz confined orbital
      l=2, rc=6.6250 Bohr: 3d-sz confined orbital
      l=0, rc=2.1406 Bohr: 3s-dz split-valence wave
      l=0, rc=6.0156 Bohr: 4s-dz split-valence wave
      l=1, rc=2.3125 Bohr: 3p-dz split-valence wave
      l=1, rc=8.1094 Bohr: 4p-dz split-valence wave
      l=2, rc=3.8594 Bohr: 3d-dz split-valence wave
      l=1, rc=9.9062 Bohr: p-type Gaussian polarization

V-setup:
  name: Vanadium
  id: a8354638d66c808f8c867a10b63fd727
  Z: 23
  valence: 13
  core: 10
  charge: 0.0
  file: /home/wido/sw/gpaw/basis/gpaw-setups-0.9.20000/V.PBE.gz
  cutoffs: 1.19(comp), 2.14(filt), 0.96(core), lmax=2
  valence states:
                energy  radius
    3s(2.00)   -70.222   1.254
    4s(2.00)    -4.702   1.254
    3p(6.00)   -44.043   1.281
    4p(0.00)    -1.444   1.281
    3d(3.00)    -5.164   1.169
    *d          22.047   1.169

  LCAO basis set for V:
    Name: dzp
    File: /home/wido/sw/gpaw/basis/gpaw-setups-0.9.20000/V.dzp.basis.gz
    Number of radial functions: 11
    Number of spherical harmonics: 29
      l=0, rc=3.2656 Bohr: 3s-sz confined orbital
      l=0, rc=9.5312 Bohr: 4s-sz confined orbital
      l=1, rc=3.6719 Bohr: 3p-sz confined orbital
      l=1, rc=12.8750 Bohr: 4p-sz confined orbital
      l=2, rc=6.0938 Bohr: 3d-sz confined orbital
      l=0, rc=2.0625 Bohr: 3s-dz split-valence wave
      l=0, rc=5.7656 Bohr: 4s-dz split-valence wave
      l=1, rc=2.4062 Bohr: 3p-dz split-valence wave
      l=1, rc=7.8906 Bohr: 4p-dz split-valence wave
      l=2, rc=3.6562 Bohr: 3d-dz split-valence wave
      l=1, rc=9.5312 Bohr: p-type Gaussian polarization

H-setup:
  name: Hydrogen
  id: d65de229564ff8ea4db303e23b6d1ecf
  Z: 1
  valence: 1
  core: 0
  charge: 0.0
  file: /home/wido/sw/gpaw/basis/gpaw-setups-0.9.20000/H.PBE.gz
  cutoffs: 0.48(comp), 0.85(filt), 0.53(core), lmax=2
  valence states:
                energy  radius
    1s(1.00)    -6.494   0.476
    *s          20.717   0.476
    *p           0.000   0.476

  LCAO basis set for H:
    Name: dzp
    File: /home/wido/sw/gpaw/basis/gpaw-setups-0.9.20000/H.dzp.basis.gz
    Number of radial functions: 3
    Number of spherical harmonics: 5
      l=0, rc=6.4219 Bohr: 1s-sz confined orbital
      l=0, rc=3.6094 Bohr: 1s-dz split-valence wave
      l=1, rc=6.4219 Bohr: p-type Gaussian polarization

Reference energy: -1048982.797703

Spin-paired calculation

Occupation numbers:
  Fermi-Dirac: width=0.1000 eV

Convergence criteria:
  Maximum total energy change: 0.0005 eV / electron
  Maximum integral of absolute density change: 0.0001 electrons
  Maximum integral of absolute eigenstate change: 4e-08 eV^2
  Maximum number of iterations: 333

Symmetries present (total): 1

  ( 1  0  0)
  ( 0  1  0)
  ( 0  0  1)

9 k-points: 3 x 3 x 1 Monkhorst-Pack grid
5 k-points in the irreducible part of the Brillouin zone
       k-points in crystal coordinates                weights
   0:     0.00000000    0.00000000    0.00000000          1/9
   1:     0.00000000    0.33333333    0.00000000          2/9
   2:     0.33333333   -0.33333333    0.00000000          2/9
   3:     0.33333333    0.00000000    0.00000000          2/9
   4:     0.33333333    0.33333333    0.00000000          2/9

Wave functions: Plane wave expansion
  Cutoff energy: 500.000 eV
  Number of coefficients (min, max): 70673, 70768
  Pulay-stress correction: 0.000000 eV/Ang^3 (de/decut=0.000000)
  Using FFTW library
  ScaLapack parameters: grid=1x1, blocksize=None
  Wavefunction extrapolation:
    Improved wavefunction reuse through dual PAW basis 

Eigensolver
   Davidson(niter=2, smin=None, normalize=True) 

Densities:
  Coarse grid: 54*60*125 grid
  Fine grid: 108*120*250 grid
  Total Charge: 0.000000 

Density mixing:
  Method: separate
  Backend: pulay
  Linear mixing parameter: 0.05
  Mixing with 5 old densities
  Damping of long wave oscillations: 50 

Hamiltonian:
  XC and Coulomb potentials evaluated on a 108*120*250 grid
  Using the PBE Exchange-Correlation functional
 

XC parameters: PBE with 2 nearest neighbor stencil

Memory estimate:
  Process memory now: 276.51 MiB
  Calculator: 3754.76 MiB
    Density: 8.90 MiB
      Arrays: 2.89 MiB
      Localized functions: 4.89 MiB
      Mixer: 1.11 MiB
    Hamiltonian: 2.03 MiB
      Arrays: 1.89 MiB
      XC: 0.00 MiB
      Poisson: 0.00 MiB
      vbar: 0.14 MiB
    Wavefunctions: 3743.83 MiB
      Arrays psit_nG: 3055.93 MiB
      Eigensolver: 665.48 MiB
      Projections: 2.67 MiB
      Projectors: 2.80 MiB
      PW-descriptor: 16.94 MiB

Total number of cores used: 28
Domain decomposition: 2 x 2 x 7

Number of atoms: 121
Number of atomic orbitals: 2149
Number of bands in calculation: 566
Bands to converge: occupied states only
Number of valence electrons: 936

... initialized

Initializing position-dependent things.

Density initialized from atomic densities
Creating initial wave functions:
  566 bands from LCAO basis set

                                                
                                                
                                                
                                                
                                                
                                                
                  H O H  O                      
                          V O                   
              O     O   O     O                 
                  TO V   O      O               
                  O    O      Ti     Ti         
           O   TH       O         O             
              OHO     TO   OTO    Ti            
         O     O    OTi    Ti    O O            
             Tii   TiO    OOO   O               
              O   OO    TiTi   TiOi             
          O Ti   TiOi     O  O O     O          
            O   O     OOTi    TiO               
                TiO      O  O O    O Ti         
         Ti   O O    O Oi    Ti     O           
               Ti          OTi    Ti            
             O O    O O         O               
                    Ti     Oi     O             
             Oi     O    O      Ti              
           O      Ti    Ti     O                
          Ti          O      O                  
               O                                
                                                
                                                
                                                
                                                

Positions:
   0 O      8.476572    1.911173    6.000000    ( 0.0000,  0.0000,  0.0000)
   1 O      3.305699    0.000000    6.000000    ( 0.0000,  0.0000,  0.0000)
   2 Ti     1.412752    0.000000    6.752957    ( 0.0000,  0.0000,  0.0000)
   3 Ti     6.583625    1.911173    6.752957    ( 0.0000,  0.0000,  0.0000)
   4 Ti     9.522250    1.911173    7.640878    ( 0.0000,  0.0000,  0.0000)
   5 Ti     4.351376    0.000000    7.640878    ( 0.0000,  0.0000,  0.0000)
   6 O      9.861551    0.000000    7.505914    ( 0.0000,  0.0000,  0.0000)
   7 O      4.690678    1.911173    7.505914    ( 0.0000,  0.0000,  0.0000)
   8 O      7.629303    1.911173    8.393834    ( 0.0000,  0.0000,  0.0000)
   9 O      2.458430    0.000000    8.393834    ( 0.0000,  0.0000,  0.0000)
  10 O      6.244323    0.000000    6.887921    ( 0.0000,  0.0000,  0.0000)
  11 O      1.073450    1.911173    6.887921    ( 0.0000,  0.0000,  0.0000)
  12 O      9.817276    1.900997    9.592462    ( 0.0000,  0.0000,  0.0000)
  13 O      4.634828   11.469731    9.578955    ( 0.0000,  0.0000,  0.0000)
  14 Ti     2.748160   11.461039   10.383932    ( 0.0000,  0.0000,  0.0000)
  15 Ti     7.966417    1.903967   10.382108    ( 0.0000,  0.0000,  0.0000)
  16 Ti     0.512398    1.899277   11.182972    ( 0.0000,  0.0000,  0.0000)
  17 Ti     5.663403   11.452309   11.121006    ( 0.0000,  0.0000,  0.0000)
  18 O      0.904080   11.450002   11.092974    ( 0.0000,  0.0000,  0.0000)
  19 O      6.082024    1.923089   11.072190    ( 0.0000,  0.0000,  0.0000)
  20 O      9.021198    1.954873   11.947104    ( 0.0000,  0.0000,  0.0000)
  21 O      3.865567   11.454281   11.936503    ( 0.0000,  0.0000,  0.0000)
  22 O      7.571394   11.471817   10.448904    ( 0.0000,  0.0000,  0.0000)
  23 O      2.368442    1.908963   10.449867    ( 0.0000,  0.0000,  0.0000)
  24 O      0.911503    1.868496   13.114789    ( 0.0000,  0.0000,  0.0000)
  25 O      6.114310    0.058524   13.060084    ( 0.0000,  0.0000,  0.0000)
  26 Ti     4.201273    0.088044   13.975922    ( 0.0000,  0.0000,  0.0000)
  27 Ti     9.415312    1.948700   14.001305    ( 0.0000,  0.0000,  0.0000)
  28 Ti     1.855041    1.907591   14.736367    ( 0.0000,  0.0000,  0.0000)
  29 Ti     6.992526    0.061117   14.600503    ( 0.0000,  0.0000,  0.0000)
  30 O      2.386185   11.474022   14.748190    ( 0.0000,  0.0000,  0.0000)
  31 O      7.533328    1.973644   14.813879    ( 0.0000,  0.0000,  0.0000)
  32 O      0.174122    1.991358   15.459165    ( 0.0000,  0.0000,  0.0000)
  33 O      5.383296   11.482555   15.443532    ( 0.0000,  0.0000,  0.0000)
  34 O      9.036218    0.064350   13.958348    ( 0.0000,  0.0000,  0.0000)
  35 O      3.885313    1.911265   13.948229    ( 0.0000,  0.0000,  0.0000)
  36 O      8.476572    5.733518    6.000000    ( 0.0000,  0.0000,  0.0000)
  37 O      3.305699    3.822345    6.000000    ( 0.0000,  0.0000,  0.0000)
  38 Ti     1.412752    3.822345    6.752957    ( 0.0000,  0.0000,  0.0000)
  39 Ti     6.583625    5.733518    6.752957    ( 0.0000,  0.0000,  0.0000)
  40 Ti     9.522250    5.733518    7.640878    ( 0.0000,  0.0000,  0.0000)
  41 Ti     4.351376    3.822345    7.640878    ( 0.0000,  0.0000,  0.0000)
  42 O      9.861551    3.822345    7.505914    ( 0.0000,  0.0000,  0.0000)
  43 O      4.690678    5.733518    7.505914    ( 0.0000,  0.0000,  0.0000)
  44 O      7.629303    5.733518    8.393834    ( 0.0000,  0.0000,  0.0000)
  45 O      2.458430    3.822345    8.393834    ( 0.0000,  0.0000,  0.0000)
  46 O      6.244323    3.822345    6.887921    ( 0.0000,  0.0000,  0.0000)
  47 O      1.073450    5.733518    6.887921    ( 0.0000,  0.0000,  0.0000)
  48 O      9.805834    5.728946    9.614725    ( 0.0000,  0.0000,  0.0000)
  49 O      4.636990    3.836199    9.583582    ( 0.0000,  0.0000,  0.0000)
  50 Ti     2.696987    3.856506   10.332250    ( 0.0000,  0.0000,  0.0000)
  51 Ti     8.013627    5.758308   10.368638    ( 0.0000,  0.0000,  0.0000)
  52 Ti     0.493886    5.761695   11.302896    ( 0.0000,  0.0000,  0.0000)
  53 Ti     5.720394    3.818039   11.079865    ( 0.0000,  0.0000,  0.0000)
  54 O      0.906754    3.833365   11.097820    ( 0.0000,  0.0000,  0.0000)
  55 O      6.072775    5.751737   11.102266    ( 0.0000,  0.0000,  0.0000)
  56 O      9.029686    5.795618   11.981520    ( 0.0000,  0.0000,  0.0000)
  57 O      3.835836    3.824320   11.925958    ( 0.0000,  0.0000,  0.0000)
  58 O      7.555307    3.842968   10.448804    ( 0.0000,  0.0000,  0.0000)
  59 O      2.381046    5.740736   10.451921    ( 0.0000,  0.0000,  0.0000)
  60 O      0.895508    5.742366   13.218670    ( 0.0000,  0.0000,  0.0000)
  61 O      6.067411    3.832320   13.100891    ( 0.0000,  0.0000,  0.0000)
  62 Ti     4.069439    3.911519   13.774359    ( 0.0000,  0.0000,  0.0000)
  63 Ti     9.492794    5.740889   14.096265    ( 0.0000,  0.0000,  0.0000)
  64 Ti     1.939401    5.792065   14.967968    ( 0.0000,  0.0000,  0.0000)
  65 Ti     7.057932    3.876648   14.569464    ( 0.0000,  0.0000,  0.0000)
  66 O      2.350145    3.779594   14.605907    ( 0.0000,  0.0000,  0.0000)
  67 O      7.531348    5.733349   14.809440    ( 0.0000,  0.0000,  0.0000)
  68 O      0.215242    5.733914   15.603883    ( 0.0000,  0.0000,  0.0000)
  69 O      5.366851    4.015781   15.606783    ( 0.0000,  0.0000,  0.0000)
  70 O      8.969973    3.871768   13.969105    ( 0.0000,  0.0000,  0.0000)
  71 O      3.839289    5.739776   13.924627    ( 0.0000,  0.0000,  0.0000)
  72 O      8.476572    9.555862    6.000000    ( 0.0000,  0.0000,  0.0000)
  73 O      3.305699    7.644690    6.000000    ( 0.0000,  0.0000,  0.0000)
  74 Ti     1.412752    7.644690    6.752957    ( 0.0000,  0.0000,  0.0000)
  75 Ti     6.583625    9.555862    6.752957    ( 0.0000,  0.0000,  0.0000)
  76 Ti     9.522250    9.555862    7.640878    ( 0.0000,  0.0000,  0.0000)
  77 Ti     4.351376    7.644690    7.640878    ( 0.0000,  0.0000,  0.0000)
  78 O      9.861551    7.644690    7.505914    ( 0.0000,  0.0000,  0.0000)
  79 O      4.690678    9.555862    7.505914    ( 0.0000,  0.0000,  0.0000)
  80 O      7.629303    9.555862    8.393834    ( 0.0000,  0.0000,  0.0000)
  81 O      2.458430    7.644690    8.393834    ( 0.0000,  0.0000,  0.0000)
  82 O      6.244323    7.644690    6.887921    ( 0.0000,  0.0000,  0.0000)
  83 O      1.073450    9.555862    6.887921    ( 0.0000,  0.0000,  0.0000)
  84 O      9.817273    9.542608    9.602870    ( 0.0000,  0.0000,  0.0000)
  85 O      4.640744    7.650622    9.612320    ( 0.0000,  0.0000,  0.0000)
  86 Ti     2.774829    7.653395   10.319156    ( 0.0000,  0.0000,  0.0000)
  87 Ti     7.959710    9.575993   10.388186    ( 0.0000,  0.0000,  0.0000)
  88 Ti     0.484482    9.534796   11.201223    ( 0.0000,  0.0000,  0.0000)
  89 Ti     5.727010    7.617188   11.201547    ( 0.0000,  0.0000,  0.0000)
  90 O      0.903664    7.639696   11.101977    ( 0.0000,  0.0000,  0.0000)
  91 O      6.089806    9.563640   11.091299    ( 0.0000,  0.0000,  0.0000)
  92 O      9.037891    9.555901   11.970960    ( 0.0000,  0.0000,  0.0000)
  93 O      3.847946    7.645115   11.948561    ( 0.0000,  0.0000,  0.0000)
  94 O      7.553994    7.650135   10.456600    ( 0.0000,  0.0000,  0.0000)
  95 O      2.380828    9.541330   10.451629    ( 0.0000,  0.0000,  0.0000)
  96 O      0.934560    9.542850   13.181099    ( 0.0000,  0.0000,  0.0000)
  97 O      6.050491    7.697174   13.232722    ( 0.0000,  0.0000,  0.0000)
  98 Ti     4.179507    7.725739   13.808216    ( 0.0000,  0.0000,  0.0000)
  99 Ti     9.442110    9.690107   14.061608    ( 0.0000,  0.0000,  0.0000)
 100 Ti     1.888276    9.573185   14.764177    ( 0.0000,  0.0000,  0.0000)
 101 Ti     7.237444    7.708689   14.811840    ( 0.0000,  0.0000,  0.0000)
 102 O      2.351934    7.655718   14.804038    ( 0.0000,  0.0000,  0.0000)
 103 O      7.553212    9.665511   14.774401    ( 0.0000,  0.0000,  0.0000)
 104 O      0.210723    9.709275   15.524780    ( 0.0000,  0.0000,  0.0000)
 105 O      5.163396    7.599775   15.570177    ( 0.0000,  0.0000,  0.0000)
 106 O      9.006735    7.680690   14.140650    ( 0.0000,  0.0000,  0.0000)
 107 O      3.837273    9.549244   13.959894    ( 0.0000,  0.0000,  0.0000)
 108 V      5.734486    7.568012   17.208269    ( 0.0000,  0.0000,  0.0000)
 109 V      4.457046    4.691625   17.049889    ( 0.0000,  0.0000,  0.0000)
 110 O      2.686832    9.765398   16.939362    ( 0.0000,  0.0000,  0.0000)
 111 O      7.396575    7.829549   16.754737    ( 0.0000,  0.0000,  0.0000)
 112 O      4.101830    3.461489   18.054118    ( 0.0000,  0.0000,  0.0000)
 113 O      5.455454    5.899156   17.872724    ( 0.0000,  0.0000,  0.0000)
 114 O      4.990151    8.741950   18.064646    ( 0.0000,  0.0000,  0.0000)
 115 O      2.593556    1.667392   16.772537    ( 0.0000,  0.0000,  0.0000)
 116 O      2.992521    5.478254   16.557459    ( 0.0000,  0.0000,  0.0000)
 117 H      1.997179    9.483862   17.583983    ( 0.0000,  0.0000,  0.0000)
 118 H      2.973439    0.767924   16.927076    ( 0.0000,  0.0000,  0.0000)
 119 H      3.555960    9.389971   17.307838    ( 0.0000,  0.0000,  0.0000)
 120 H      3.132840    2.318796   17.334554    ( 0.0000,  0.0000,  0.0000)

Unit cell:
           periodic     x           y           z      points  spacing
  1. axis:    yes   10.341746    0.000000    0.000000    54     0.1915
  2. axis:    yes   -0.000000   11.467000    0.000000    60     0.1911
  3. axis:    no     0.000000    0.000000   23.497201   125     0.1880

  Lengths:  10.341746  11.467000  23.497201
  Angles:   90.000000  90.000000  90.000000

Effective grid spacing dv^(1/3) = 0.1902

                     log10-error:    total        iterations:
           time      wfs    density  energy       fermi  poisson
iter:   1  02:55:45  -0.13   +inf  -1123.194463    8             
iter:   2  02:56:42  -1.04  -0.96  -1075.855901    2             
iter:   3  02:57:39  +0.44  -1.00  -981.095193    5             
iter:   4  02:58:36  -0.98  -1.35  -993.150615    4             
iter:   5  02:59:33  -1.08  -1.28  -1012.122157    3             
iter:   6  03:00:30  -0.10  -1.25  -1002.385289    5             
iter:   7  03:01:27  -0.72  -1.65  -999.642743    4             
iter:   8  03:02:24  -1.89  -1.63  -993.327444    2             
iter:   9  03:03:21  -0.99  -1.73  -986.065048    4             
iter:  10  03:04:18  -1.84  -2.11  -986.598072    2             
iter:  11  03:05:15  -2.51  -2.13  -986.604741    2             
iter:  12  03:06:12  -1.97  -2.22  -986.059288    2             
iter:  13  03:07:09  -2.34  -2.33  -986.259652    3             
iter:  14  03:08:06  -2.83  -2.36  -985.980112    3             
iter:  15  03:09:03  -2.43  -2.48  -985.904227    3             
iter:  16  03:10:00  -3.54  -2.65  -985.902539    3             
iter:  17  03:10:57  -3.30  -2.67  -985.894681    3             
iter:  18  03:11:53  -3.66  -2.95  -985.899284    2             
iter:  19  03:12:50  -4.81  -3.01  -985.893942    1             
iter:  20  03:13:47  -4.42  -3.03  -985.894970    2             
iter:  21  03:14:44  -4.16  -3.28  -985.895044    2             
iter:  22  03:15:41  -4.14  -3.35  -985.895429    2             
iter:  23  03:16:38  -5.07  -3.48  -985.894166    2             
iter:  24  03:17:35  -4.34  -3.59  -985.893057    2             
iter:  25  03:18:32  -5.58  -3.89  -985.892972    1             
iter:  26  03:19:29  -5.87  -3.97  -985.892852    2             
iter:  27  03:20:26  -5.79  -4.10  -985.892881    1             
iter:  28  03:21:23  -6.46  -4.21  -985.892880    2             
iter:  29  03:22:19  -6.86  -4.23  -985.892871    2             
iter:  30  03:23:16  -6.60  -4.36  -985.892862    2             
iter:  31  03:24:13  -6.85  -4.47  -985.892859    1             
iter:  32  03:25:10  -6.51  -4.55  -985.892872    1             
iter:  33  03:26:07  -6.94  -4.61  -985.892860    2             
iter:  34  03:27:04  -7.44  -4.97  -985.892860    1             

Converged after 34 iterations.

Dipole moment: (-16.113913, -21.401097, -0.703889) |e|*Ang

Energy contributions relative to reference atoms: (reference = -1048982.797703)

Kinetic:       +703.112214
Potential:     -898.257253
External:        +0.000000
XC:            -798.612514
Entropy (-ST):   -0.000503
Local:           +7.864944
--------------------------
Free energy:   -985.893112
Extrapolated:  -985.892860

Fermi level: -0.53343

Showing only first 2 kpts
 Kpt  Band  Eigenvalues  Occupancy
  0   466     -1.60166    0.22222
  0   467     -1.59758    0.22222
  0   468      0.31734    0.00004
  0   469      0.47325    0.00001

  1   466     -1.61590    0.44444
  1   467     -1.58708    0.44443
  1   468      0.50847    0.00001
  1   469      0.60862    0.00000



Forces in eV/Ang:
  0 O    -1.89203    0.00239    1.52391
  1 O    -1.93665   -0.00031    1.52250
  2 Ti    3.83468    0.00854    1.97720
  3 Ti    3.87539   -0.03089    1.98799
  4 Ti   -1.92308   -0.04040   -1.78187
  5 Ti   -1.85934    0.00946   -1.97639
  6 O     0.89809   -0.04172   -0.20400
  7 O     0.84872    0.07401   -0.19072
  8 O    -0.63860    0.03902   -0.67084
  9 O    -0.68924   -0.02047   -0.63007
 10 O    -0.28019   -0.00790   -0.86594
 11 O    -0.21977    0.10728   -0.91627
 12 O    -0.16916    0.00631    0.04236
 13 O    -0.17647   -0.00178   -0.02053
 14 Ti    0.05158    0.01959   -0.08235
 15 Ti   -0.03006    0.02801   -0.09797
 16 Ti    0.04330    0.00762    0.06276
 17 Ti    0.06490    0.04647    0.06943
 18 O     0.12907    0.01563   -0.03600
 19 O     0.18645   -0.04468   -0.11773
 20 O     0.03076    0.01015    0.11133
 21 O     0.00895    0.00494    0.04459
 22 O     0.02816   -0.00257    0.08272
 23 O    -0.01993    0.02181    0.05445
 24 O    -0.01401   -0.00598    0.04240
 25 O    -0.11645    0.02207   -0.01377
 26 Ti    0.01465   -0.15326   -0.18236
 27 Ti   -0.08455    0.03197   -0.12693
 28 Ti    0.20208   -0.00630    0.07926
 29 Ti    0.19748    0.04146    0.01259
 30 O     0.03896    0.03835   -0.24904
 31 O     0.01414   -0.01244    0.12714
 32 O    -0.06545    0.01592    0.14397
 33 O     0.00751    0.02953    0.05694
 34 O    -0.21827    0.03266    0.17965
 35 O    -0.13388    0.13419    0.17559
 36 O    -1.85919   -0.00060    1.53553
 37 O    -1.98101    0.00999    1.57942
 38 Ti    3.58696   -0.06712    1.72725
 39 Ti    3.88387    0.00425    1.99790
 40 Ti   -1.92643   -0.01288   -1.55778
 41 Ti   -1.55091   -0.05016   -1.97345
 42 O     0.95775    0.02972   -0.21359
 43 O     0.82513    0.02978   -0.19956
 44 O    -0.68275    0.03984   -0.71380
 45 O    -0.71476    0.00824   -0.65068
 46 O    -0.32893    0.02375   -0.88276
 47 O    -0.20202    0.00621   -0.88251
 48 O    -0.04464    0.00847    0.06914
 49 O    -0.19440    0.01137   -0.02960
 50 Ti    0.11906   -0.05620   -0.02729
 51 Ti   -0.11309   -0.02750   -0.05920
 52 Ti    0.11696   -0.02839   -0.07715
 53 Ti   -0.06084    0.02979    0.17393
 54 O     0.08108    0.02210   -0.01268
 55 O     0.21026   -0.07485   -0.04054
 56 O    -0.01782   -0.00727    0.23283
 57 O     0.02151   -0.00853   -0.15427
 58 O     0.09247   -0.00793    0.05849
 59 O    -0.03922    0.04021    0.16731
 60 O     0.08254    0.01286   -0.12112
 61 O    -0.05795    0.00761    0.09779
 62 Ti    0.17097   -0.10749    0.01613
 63 Ti   -0.20438    0.06312   -0.10562
 64 Ti    0.12083   -0.11394   -0.14887
 65 Ti    0.03538   -0.03385    0.04421
 66 O    -0.09659    0.12629    0.31933
 67 O     0.07326    0.06956    0.08327
 68 O    -0.04216   -0.00751   -0.11100
 69 O    -0.09275   -0.09269   -0.21880
 70 O    -0.15961   -0.03023    0.17281
 71 O    -0.23591    0.14957   -0.00189
 72 O    -1.85852   -0.01055    1.54809
 73 O    -1.93994   -0.00544    1.58617
 74 Ti    3.60942    0.06007    1.75272
 75 Ti    3.84763    0.03437    2.00454
 76 Ti   -1.94584    0.04604   -1.76515
 77 Ti   -1.49873    0.03593   -1.69337
 78 O     0.95681   -0.02596   -0.21747
 79 O     0.85037   -0.07523   -0.20022
 80 O    -0.59397    0.00387   -0.57792
 81 O    -0.67683   -0.01699   -0.65591
 82 O    -0.33587   -0.01595   -0.86255
 83 O    -0.22950   -0.11554   -0.91984
 84 O    -0.16632    0.00736    0.03134
 85 O    -0.11607    0.00275   -0.01317
 86 Ti   -0.03144    0.00532    0.02502
 87 Ti   -0.00793   -0.00940   -0.09933
 88 Ti    0.12037    0.01359    0.04654
 89 Ti   -0.02972    0.07095    0.11369
 90 O     0.18499    0.01509   -0.02726
 91 O     0.18997   -0.02329   -0.07124
 92 O     0.01353    0.00713    0.19876
 93 O     0.00987   -0.00054   -0.02741
 94 O     0.05143    0.02411    0.09822
 95 O    -0.01864    0.01710    0.12791
 96 O    -0.12129    0.00607   -0.30734
 97 O     0.04025    0.01448   -0.18033
 98 Ti   -0.09869   -0.12672    0.13022
 99 Ti   -0.09418   -0.13949   -0.14343
100 Ti    0.19321   -0.00674    0.04981
101 Ti   -0.11811   -0.02472   -0.00948
102 O     0.02061    0.06415    0.03266
103 O     0.07840   -0.05018   -0.09189
104 O    -0.05354   -0.08005    0.27513
105 O     0.11863   -0.10791   -0.00554
106 O    -0.02238    0.04378   -0.08429
107 O    -0.23897    0.11818    0.21713
108 V    -0.04283    0.16822    0.05832
109 V    -0.07710   -0.07655    0.12710
110 O     0.06934   -0.35354    0.32047
111 O    -0.08804   -0.02981    0.05789
112 O     0.00472    0.14218   -0.19478
113 O     0.05772   -0.02481    0.15462
114 O     0.14131   -0.07045   -0.10317
115 O     0.48898   -0.08739    0.29443
116 O     0.05946   -0.11426    0.12496
117 H     0.26144    0.13490   -0.29589
118 H    -0.20050    0.38796   -0.06317
119 H    -0.34971    0.16620   -0.14485
120 H    -0.19905   -0.22326   -0.21435

System changes: positions 

Initializing position-dependent things.

Density initialized from wave functions
                                                
                                                
                                                
                                                
                                                
                                                
                  H O H  O                      
                          V O                   
              O     O   O     O                 
                  TO V   O      O               
                  O    O      Ti     Ti         
           O   TH       O         O             
              OHO     TO   OTO    Ti            
         O     O    OTi    Ti    O O            
             Tii   TiO    OOO   O               
              O   OO    TiTi   TiOi             
          O Ti   TiOi     O  O O     O          
            O   O     OOTi    TiO               
                TiO      O  O  O   O Ti         
         Ti   O O    O Oi    Ti     O           
               Ti          OTi    Ti            
             O O    O O         O               
                    Ti     Oi     O             
             Oi     O    O      Ti              
           O      Ti    Ti     O                
          Ti          O      O                  
               O                                
                                                
                                                
                                                
                                                

Positions:
   0 O      8.476572    1.911173    6.000000    ( 0.0000,  0.0000,  0.0000)
   1 O      3.305699    0.000000    6.000000    ( 0.0000,  0.0000,  0.0000)
   2 Ti     1.412752    0.000000    6.752957    ( 0.0000,  0.0000,  0.0000)
   3 Ti     6.583625    1.911173    6.752957    ( 0.0000,  0.0000,  0.0000)
   4 Ti     9.522250    1.911173    7.640878    ( 0.0000,  0.0000,  0.0000)
   5 Ti     4.351376    0.000000    7.640878    ( 0.0000,  0.0000,  0.0000)
   6 O      9.861551    0.000000    7.505914    ( 0.0000,  0.0000,  0.0000)
   7 O      4.690678    1.911173    7.505914    ( 0.0000,  0.0000,  0.0000)
   8 O      7.629303    1.911173    8.393834    ( 0.0000,  0.0000,  0.0000)
   9 O      2.458430    0.000000    8.393834    ( 0.0000,  0.0000,  0.0000)
  10 O      6.244323    0.000000    6.887921    ( 0.0000,  0.0000,  0.0000)
  11 O      1.073450    1.911173    6.887921    ( 0.0000,  0.0000,  0.0000)
  12 O      9.814859    1.901087    9.593067    ( 0.0000,  0.0000,  0.0000)
  13 O      4.632307   11.469706    9.578662    ( 0.0000,  0.0000,  0.0000)
  14 Ti     2.748896   11.461318   10.382756    ( 0.0000,  0.0000,  0.0000)
  15 Ti     7.965988    1.904367   10.380708    ( 0.0000,  0.0000,  0.0000)
  16 Ti     0.513016    1.899386   11.183869    ( 0.0000,  0.0000,  0.0000)
  17 Ti     5.664330   11.452972   11.121998    ( 0.0000,  0.0000,  0.0000)
  18 O      0.905924   11.450225   11.092460    ( 0.0000,  0.0000,  0.0000)
  19 O      6.084687    1.922450   11.070508    ( 0.0000,  0.0000,  0.0000)
  20 O      9.021637    1.955018   11.948695    ( 0.0000,  0.0000,  0.0000)
  21 O      3.865695   11.454351   11.937140    ( 0.0000,  0.0000,  0.0000)
  22 O      7.571796   11.471780   10.450085    ( 0.0000,  0.0000,  0.0000)
  23 O      2.368157    1.909274   10.450645    ( 0.0000,  0.0000,  0.0000)
  24 O      0.911303    1.868411   13.115395    ( 0.0000,  0.0000,  0.0000)
  25 O      6.112646    0.058839   13.059887    ( 0.0000,  0.0000,  0.0000)
  26 Ti     4.201482    0.085854   13.973317    ( 0.0000,  0.0000,  0.0000)
  27 Ti     9.414104    1.949157   13.999492    ( 0.0000,  0.0000,  0.0000)
  28 Ti     1.857928    1.907501   14.737499    ( 0.0000,  0.0000,  0.0000)
  29 Ti     6.995347    0.061709   14.600683    ( 0.0000,  0.0000,  0.0000)
  30 O      2.386742   11.474570   14.744632    ( 0.0000,  0.0000,  0.0000)
  31 O      7.533530    1.973466   14.815695    ( 0.0000,  0.0000,  0.0000)
  32 O      0.173187    1.991585   15.461222    ( 0.0000,  0.0000,  0.0000)
  33 O      5.383404   11.482976   15.444345    ( 0.0000,  0.0000,  0.0000)
  34 O      9.033100    0.064817   13.960914    ( 0.0000,  0.0000,  0.0000)
  35 O      3.883400    1.913182   13.950738    ( 0.0000,  0.0000,  0.0000)
  36 O      8.476572    5.733518    6.000000    ( 0.0000,  0.0000,  0.0000)
  37 O      3.305699    3.822345    6.000000    ( 0.0000,  0.0000,  0.0000)
  38 Ti     1.412752    3.822345    6.752957    ( 0.0000,  0.0000,  0.0000)
  39 Ti     6.583625    5.733518    6.752957    ( 0.0000,  0.0000,  0.0000)
  40 Ti     9.522250    5.733518    7.640878    ( 0.0000,  0.0000,  0.0000)
  41 Ti     4.351376    3.822345    7.640878    ( 0.0000,  0.0000,  0.0000)
  42 O      9.861551    3.822345    7.505914    ( 0.0000,  0.0000,  0.0000)
  43 O      4.690678    5.733518    7.505914    ( 0.0000,  0.0000,  0.0000)
  44 O      7.629303    5.733518    8.393834    ( 0.0000,  0.0000,  0.0000)
  45 O      2.458430    3.822345    8.393834    ( 0.0000,  0.0000,  0.0000)
  46 O      6.244323    3.822345    6.887921    ( 0.0000,  0.0000,  0.0000)
  47 O      1.073450    5.733518    6.887921    ( 0.0000,  0.0000,  0.0000)
  48 O      9.805197    5.729067    9.615713    ( 0.0000,  0.0000,  0.0000)
  49 O      4.634213    3.836361    9.583159    ( 0.0000,  0.0000,  0.0000)
  50 Ti     2.698688    3.855703   10.331860    ( 0.0000,  0.0000,  0.0000)
  51 Ti     8.012012    5.757915   10.367792    ( 0.0000,  0.0000,  0.0000)
  52 Ti     0.495557    5.761289   11.301793    ( 0.0000,  0.0000,  0.0000)
  53 Ti     5.719525    3.818464   11.082350    ( 0.0000,  0.0000,  0.0000)
  54 O      0.907913    3.833680   11.097639    ( 0.0000,  0.0000,  0.0000)
  55 O      6.075779    5.750667   11.101687    ( 0.0000,  0.0000,  0.0000)
  56 O      9.029432    5.795514   11.984846    ( 0.0000,  0.0000,  0.0000)
  57 O      3.836143    3.824199   11.923754    ( 0.0000,  0.0000,  0.0000)
  58 O      7.556628    3.842855   10.449640    ( 0.0000,  0.0000,  0.0000)
  59 O      2.380486    5.741310   10.454311    ( 0.0000,  0.0000,  0.0000)
  60 O      0.896687    5.742549   13.216940    ( 0.0000,  0.0000,  0.0000)
  61 O      6.066583    3.832429   13.102288    ( 0.0000,  0.0000,  0.0000)
  62 Ti     4.071881    3.909983   13.774589    ( 0.0000,  0.0000,  0.0000)
  63 Ti     9.489874    5.741791   14.094756    ( 0.0000,  0.0000,  0.0000)
  64 Ti     1.941128    5.790438   14.965841    ( 0.0000,  0.0000,  0.0000)
  65 Ti     7.058437    3.876164   14.570095    ( 0.0000,  0.0000,  0.0000)
  66 O      2.348765    3.781399   14.610469    ( 0.0000,  0.0000,  0.0000)
  67 O      7.532394    5.734343   14.810630    ( 0.0000,  0.0000,  0.0000)
  68 O      0.214640    5.733807   15.602298    ( 0.0000,  0.0000,  0.0000)
  69 O      5.365527    4.014457   15.603657    ( 0.0000,  0.0000,  0.0000)
  70 O      8.967692    3.871336   13.971574    ( 0.0000,  0.0000,  0.0000)
  71 O      3.835919    5.741912   13.924600    ( 0.0000,  0.0000,  0.0000)
  72 O      8.476572    9.555862    6.000000    ( 0.0000,  0.0000,  0.0000)
  73 O      3.305699    7.644690    6.000000    ( 0.0000,  0.0000,  0.0000)
  74 Ti     1.412752    7.644690    6.752957    ( 0.0000,  0.0000,  0.0000)
  75 Ti     6.583625    9.555862    6.752957    ( 0.0000,  0.0000,  0.0000)
  76 Ti     9.522250    9.555862    7.640878    ( 0.0000,  0.0000,  0.0000)
  77 Ti     4.351376    7.644690    7.640878    ( 0.0000,  0.0000,  0.0000)
  78 O      9.861551    7.644690    7.505914    ( 0.0000,  0.0000,  0.0000)
  79 O      4.690678    9.555862    7.505914    ( 0.0000,  0.0000,  0.0000)
  80 O      7.629303    9.555862    8.393834    ( 0.0000,  0.0000,  0.0000)
  81 O      2.458430    7.644690    8.393834    ( 0.0000,  0.0000,  0.0000)
  82 O      6.244323    7.644690    6.887921    ( 0.0000,  0.0000,  0.0000)
  83 O      1.073450    9.555862    6.887921    ( 0.0000,  0.0000,  0.0000)
  84 O      9.814897    9.542713    9.603318    ( 0.0000,  0.0000,  0.0000)
  85 O      4.639086    7.650661    9.612132    ( 0.0000,  0.0000,  0.0000)
  86 Ti     2.774380    7.653471   10.319514    ( 0.0000,  0.0000,  0.0000)
  87 Ti     7.959597    9.575858   10.386767    ( 0.0000,  0.0000,  0.0000)
  88 Ti     0.486202    9.534990   11.201887    ( 0.0000,  0.0000,  0.0000)
  89 Ti     5.726585    7.618201   11.203171    ( 0.0000,  0.0000,  0.0000)
  90 O      0.906307    7.639911   11.101587    ( 0.0000,  0.0000,  0.0000)
  91 O      6.092520    9.563308   11.090281    ( 0.0000,  0.0000,  0.0000)
  92 O      9.038085    9.556003   11.973799    ( 0.0000,  0.0000,  0.0000)
  93 O      3.848087    7.645107   11.948169    ( 0.0000,  0.0000,  0.0000)
  94 O      7.554728    7.650480   10.458003    ( 0.0000,  0.0000,  0.0000)
  95 O      2.380562    9.541575   10.453456    ( 0.0000,  0.0000,  0.0000)
  96 O      0.932828    9.542937   13.176708    ( 0.0000,  0.0000,  0.0000)
  97 O      6.051066    7.697381   13.230146    ( 0.0000,  0.0000,  0.0000)
  98 Ti     4.178097    7.723929   13.810076    ( 0.0000,  0.0000,  0.0000)
  99 Ti     9.440765    9.688114   14.059559    ( 0.0000,  0.0000,  0.0000)
 100 Ti     1.891036    9.573088   14.764889    ( 0.0000,  0.0000,  0.0000)
 101 Ti     7.235756    7.708336   14.811705    ( 0.0000,  0.0000,  0.0000)
 102 O      2.352229    7.656634   14.804505    ( 0.0000,  0.0000,  0.0000)
 103 O      7.554332    9.664794   14.773089    ( 0.0000,  0.0000,  0.0000)
 104 O      0.209959    9.708132   15.528710    ( 0.0000,  0.0000,  0.0000)
 105 O      5.165091    7.598233   15.570098    ( 0.0000,  0.0000,  0.0000)
 106 O      9.006415    7.681315   14.139446    ( 0.0000,  0.0000,  0.0000)
 107 O      3.833859    9.550932   13.962996    ( 0.0000,  0.0000,  0.0000)
 108 V      5.733874    7.570415   17.209102    ( 0.0000,  0.0000,  0.0000)
 109 V      4.455945    4.690531   17.051705    ( 0.0000,  0.0000,  0.0000)
 110 O      2.687823    9.760347   16.943940    ( 0.0000,  0.0000,  0.0000)
 111 O      7.395317    7.829123   16.755564    ( 0.0000,  0.0000,  0.0000)
 112 O      4.101897    3.463520   18.051335    ( 0.0000,  0.0000,  0.0000)
 113 O      5.456278    5.898801   17.874933    ( 0.0000,  0.0000,  0.0000)
 114 O      4.992170    8.740943   18.063172    ( 0.0000,  0.0000,  0.0000)
 115 O      2.600541    1.666144   16.776743    ( 0.0000,  0.0000,  0.0000)
 116 O      2.993370    5.476622   16.559244    ( 0.0000,  0.0000,  0.0000)
 117 H      2.000914    9.485789   17.579756    ( 0.0000,  0.0000,  0.0000)
 118 H      2.970575    0.773466   16.926174    ( 0.0000,  0.0000,  0.0000)
 119 H      3.550964    9.392345   17.305769    ( 0.0000,  0.0000,  0.0000)
 120 H      3.129996    2.315607   17.331492    ( 0.0000,  0.0000,  0.0000)

Unit cell:
           periodic     x           y           z      points  spacing
  1. axis:    yes   10.341746    0.000000    0.000000    54     0.1915
  2. axis:    yes   -0.000000   11.467000    0.000000    60     0.1911
  3. axis:    no     0.000000    0.000000   23.497201   125     0.1880

  Lengths:  10.341746  11.467000  23.497201
  Angles:   90.000000  90.000000  90.000000

Effective grid spacing dv^(1/3) = 0.1902

                     log10-error:    total        iterations:
           time      wfs    density  energy       fermi  poisson
iter:   1  03:28:22  -3.21   +inf  -985.956901    3             
iter:   2  03:29:19  -4.20  -3.26  -985.951328    2             
iter:   3  03:30:15  -3.41  -3.30  -985.937467    3             
iter:   4  03:31:12  -4.76  -3.43  -985.936458    2             
iter:   5  03:32:09  -4.56  -3.57  -985.935314    2             
iter:   6  03:33:06  -4.32  -3.69  -985.933934    2             
iter:   7  03:34:03  -5.25  -3.76  -985.933424    2             
iter:   8  03:35:00  -5.53  -3.92  -985.933165    2             
iter:   9  03:35:57  -5.68  -4.16  -985.933165    2             
iter:  10  03:36:53  -6.19  -4.23  -985.933127    2             
iter:  11  03:37:50  -6.54  -4.50  -985.933130    2             
iter:  12  03:38:47  -7.52  -4.46  -985.933124    1             

Converged after 12 iterations.

Dipole moment: (-16.214008, -21.558362, -0.700441) |e|*Ang

Energy contributions relative to reference atoms: (reference = -1048982.797703)

Kinetic:       +703.748477
Potential:     -898.655114
External:        +0.000000
XC:            -798.904223
Entropy (-ST):   -0.000502
Local:           +7.877987
--------------------------
Free energy:   -985.933375
Extrapolated:  -985.933124

Fermi level: -0.53353

Showing only first 2 kpts
 Kpt  Band  Eigenvalues  Occupancy
  0   466     -1.60204    0.22222
  0   467     -1.59826    0.22222
  0   468      0.31725    0.00004
  0   469      0.47320    0.00001

  1   466     -1.61615    0.44444
  1   467     -1.58768    0.44443
  1   468      0.50862    0.00001
  1   469      0.60914    0.00000



Forces in eV/Ang:
  0 O    -1.89353    0.00246    1.52432
  1 O    -1.93835    0.00004    1.52190
  2 Ti    3.83237    0.00714    1.97628
  3 Ti    3.87190   -0.03101    1.98603
  4 Ti   -1.91655   -0.04080   -1.77394
  5 Ti   -1.85658    0.00756   -1.97918
  6 O     0.89880   -0.03939   -0.20438
  7 O     0.85096    0.07336   -0.19065
  8 O    -0.64864    0.03846   -0.67649
  9 O    -0.69931   -0.02023   -0.63756
 10 O    -0.27956   -0.00620   -0.86511
 11 O    -0.22080    0.10594   -0.91570
 12 O    -0.14040    0.00539    0.04237
 13 O    -0.13569   -0.00144    0.01565
 14 Ti    0.03682    0.01341   -0.07912
 15 Ti    0.00520    0.02764   -0.07663
 16 Ti    0.02649    0.01191    0.07001
 17 Ti    0.06245    0.03272    0.04311
 18 O     0.11353    0.02794   -0.03810
 19 O     0.14196   -0.02167   -0.09718
 20 O     0.02339    0.00993    0.08986
 21 O     0.01808    0.00787    0.04402
 22 O     0.02245    0.00083    0.08094
 23 O    -0.00673    0.02085    0.05270
 24 O     0.00641    0.00009    0.06044
 25 O    -0.09329    0.02262    0.00787
 26 Ti    0.05974   -0.12583   -0.13794
 27 Ti   -0.01658    0.01995   -0.06345
 28 Ti    0.07644    0.02309    0.07847
 29 Ti    0.12034    0.03041    0.00563
 30 O     0.02548    0.03817   -0.21753
 31 O    -0.00676   -0.00448    0.12200
 32 O    -0.01193    0.00673    0.06608
 33 O     0.02312    0.02478   -0.00077
 34 O    -0.20585    0.02862    0.17016
 35 O    -0.12588    0.13554    0.15684
 36 O    -1.85989   -0.00085    1.53637
 37 O    -1.98208    0.00964    1.57768
 38 Ti    3.58923   -0.06521    1.73032
 39 Ti    3.87870    0.00580    1.99624
 40 Ti   -1.91955   -0.01129   -1.54492
 41 Ti   -1.55319   -0.04805   -1.97767
 42 O     0.95668    0.02948   -0.21315
 43 O     0.82823    0.02815   -0.20059
 44 O    -0.68616    0.03957   -0.71315
 45 O    -0.72453    0.00931   -0.66131
 46 O    -0.32717    0.02306   -0.88352
 47 O    -0.20386    0.00454   -0.88507
 48 O    -0.04621    0.00914    0.05365
 49 O    -0.13943    0.00939    0.01038
 50 Ti    0.08122   -0.04148   -0.04360
 51 Ti   -0.06076   -0.01688   -0.01086
 52 Ti    0.07965   -0.02605   -0.03852
 53 Ti   -0.04332    0.03173    0.11365
 54 O     0.07484    0.00280   -0.01400
 55 O     0.17459   -0.07097   -0.03185
 56 O    -0.01668   -0.01068    0.17417
 57 O     0.04873   -0.00744   -0.07755
 58 O     0.06488   -0.01599    0.06568
 59 O    -0.01881    0.02087    0.15439
 60 O     0.07515    0.01187   -0.10203
 61 O    -0.07595    0.00393    0.05476
 62 Ti    0.11534   -0.09866    0.04682
 63 Ti   -0.14012    0.06649   -0.10469
 64 Ti    0.03641   -0.11732   -0.11998
 65 Ti    0.03409   -0.02709    0.08528
 66 O    -0.03695    0.10588    0.28002
 67 O     0.05156    0.06029    0.07859
 68 O    -0.01047   -0.00296   -0.14049
 69 O    -0.09917   -0.07566   -0.19510
 70 O    -0.15404   -0.02664    0.15991
 71 O    -0.20902    0.10738   -0.01278
 72 O    -1.86106   -0.01031    1.54708
 73 O    -1.94094   -0.00539    1.58384
 74 Ti    3.61303    0.05948    1.75762
 75 Ti    3.84590    0.03300    2.00388
 76 Ti   -1.93960    0.04461   -1.75188
 77 Ti   -1.50287    0.03579   -1.68532
 78 O     0.95567   -0.02753   -0.21765
 79 O     0.85220   -0.07266   -0.20092
 80 O    -0.60657    0.00489   -0.58705
 81 O    -0.68380   -0.01653   -0.66154
 82 O    -0.33332   -0.01700   -0.86546
 83 O    -0.23010   -0.11242   -0.92095
 84 O    -0.14576    0.00749    0.03060
 85 O    -0.08467    0.00065    0.00229
 86 Ti   -0.03427   -0.00014    0.01391
 87 Ti    0.03402   -0.01722   -0.06361
 88 Ti    0.08696    0.01032    0.05790
 89 Ti   -0.01824    0.06895    0.08668
 90 O     0.16014    0.02112   -0.02821
 91 O     0.14194   -0.01138   -0.05744
 92 O     0.00133    0.01102    0.14959
 93 O     0.02561    0.00865    0.02162
 94 O     0.04048    0.01247    0.09614
 95 O    -0.00037    0.02851    0.11546
 96 O    -0.06672    0.00981   -0.16318
 97 O     0.01049    0.01334   -0.15143
 98 Ti   -0.08447   -0.11972    0.10471
 99 Ti   -0.02354   -0.12406   -0.09230
100 Ti    0.02658   -0.00167    0.01103
101 Ti   -0.09551   -0.02128    0.00588
102 O     0.03024    0.06730    0.03210
103 O     0.04524   -0.04988   -0.08043
104 O     0.00490   -0.08407    0.14094
105 O     0.08881   -0.09325   -0.06781
106 O    -0.04237    0.03683   -0.06935
107 O    -0.19941    0.08376    0.20053
108 V     0.02407   -0.04606    0.02836
109 V     0.04031    0.09346    0.00337
110 O     0.07990   -0.06181   -0.15490
111 O    -0.06009   -0.00777    0.04074
112 O    -0.01904    0.01705   -0.05439
113 O     0.04063   -0.00087    0.11152
114 O     0.08694    0.04578   -0.00768
115 O     0.06079    0.12829   -0.04082
116 O     0.02490   -0.08619    0.10024
117 H    -0.04176   -0.00030    0.00258
118 H     0.00542   -0.03151    0.03361
119 H    -0.08488    0.04049   -0.01943
120 H    -0.01313   -0.04292   -0.02121

System changes: positions 

Initializing position-dependent things.

Density initialized from wave functions
                                                
                                                
                                                
                                                
                                                
                                                
                  H O H  O                      
                          V O                   
              O     O   O     O                 
                  TO V   O      O               
                  O    O      Ti     Ti         
           O   TH       O         O             
              OHO     TO   OTO    Ti            
         O     O    OTi    Ti    O O            
             Tii   TiO    OOO   O               
              O   OO    TiTi   TiOi             
          O Ti   TiOi     O  O O     O          
            O   O     OTi     TiO               
                TiO      O  O  O   O Ti         
         Ti   O O    O Oi    Ti     O           
               Ti          OTi    Ti            
             O O    O O         O               
                    Ti     Oi     O             
             Oi     O    O      Ti              
           O      Ti    Ti     O                
          Ti          O      O                  
               O                                
                                                
                                                
                                                
                                                

Positions:
   0 O      8.476572    1.911173    6.000000    ( 0.0000,  0.0000,  0.0000)
   1 O      3.305699    0.000000    6.000000    ( 0.0000,  0.0000,  0.0000)
   2 Ti     1.412752    0.000000    6.752957    ( 0.0000,  0.0000,  0.0000)
   3 Ti     6.583625    1.911173    6.752957    ( 0.0000,  0.0000,  0.0000)
   4 Ti     9.522250    1.911173    7.640878    ( 0.0000,  0.0000,  0.0000)
   5 Ti     4.351376    0.000000    7.640878    ( 0.0000,  0.0000,  0.0000)
   6 O      9.861551    0.000000    7.505914    ( 0.0000,  0.0000,  0.0000)
   7 O      4.690678    1.911173    7.505914    ( 0.0000,  0.0000,  0.0000)
   8 O      7.629303    1.911173    8.393834    ( 0.0000,  0.0000,  0.0000)
   9 O      2.458430    0.000000    8.393834    ( 0.0000,  0.0000,  0.0000)
  10 O      6.244323    0.000000    6.887921    ( 0.0000,  0.0000,  0.0000)
  11 O      1.073450    1.911173    6.887921    ( 0.0000,  0.0000,  0.0000)
  12 O      9.809282    1.901300    9.594663    ( 0.0000,  0.0000,  0.0000)
  13 O      4.626787   11.469648    9.578889    ( 0.0000,  0.0000,  0.0000)
  14 Ti     2.750431   11.461885   10.379743    ( 0.0000,  0.0000,  0.0000)
  15 Ti     7.965830    1.905412   10.377608    ( 0.0000,  0.0000,  0.0000)
  16 Ti     0.514182    1.899792   11.186434    ( 0.0000,  0.0000,  0.0000)
  17 Ti     5.666708   11.454343   11.123885    ( 0.0000,  0.0000,  0.0000)
  18 O      0.910357   11.451154   11.091046    ( 0.0000,  0.0000,  0.0000)
  19 O      6.090481    1.921404   11.066641    ( 0.0000,  0.0000,  0.0000)
  20 O      9.022592    1.955394   11.952295    ( 0.0000,  0.0000,  0.0000)
  21 O      3.866285   11.454618   11.938804    ( 0.0000,  0.0000,  0.0000)
  22 O      7.572699   11.471777   10.453152    ( 0.0000,  0.0000,  0.0000)
  23 O      2.367771    1.910069   10.452648    ( 0.0000,  0.0000,  0.0000)
  24 O      0.911339    1.868354   13.117491    ( 0.0000,  0.0000,  0.0000)
  25 O      6.108900    0.059685   13.059967    ( 0.0000,  0.0000,  0.0000)
  26 Ti     4.203281    0.080840   13.967676    ( 0.0000,  0.0000,  0.0000)
  27 Ti     9.412799    1.950029   13.996466    ( 0.0000,  0.0000,  0.0000)
  28 Ti     1.862066    1.908076   14.740463    ( 0.0000,  0.0000,  0.0000)
  29 Ti     7.000653    0.062965   14.600965    ( 0.0000,  0.0000,  0.0000)
  30 O      2.387836   11.476010   14.736122    ( 0.0000,  0.0000,  0.0000)
  31 O      7.533484    1.973218   14.820342    ( 0.0000,  0.0000,  0.0000)
  32 O      0.172202    1.991931   15.464491    ( 0.0000,  0.0000,  0.0000)
  33 O      5.384118   11.483957   15.444894    ( 0.0000,  0.0000,  0.0000)
  34 O      9.025221    0.065935   13.967419    ( 0.0000,  0.0000,  0.0000)
  35 O      3.878578    1.918274   13.956834    ( 0.0000,  0.0000,  0.0000)
  36 O      8.476572    5.733518    6.000000    ( 0.0000,  0.0000,  0.0000)
  37 O      3.305699    3.822345    6.000000    ( 0.0000,  0.0000,  0.0000)
  38 Ti     1.412752    3.822345    6.752957    ( 0.0000,  0.0000,  0.0000)
  39 Ti     6.583625    5.733518    6.752957    ( 0.0000,  0.0000,  0.0000)
  40 Ti     9.522250    5.733518    7.640878    ( 0.0000,  0.0000,  0.0000)
  41 Ti     4.351376    3.822345    7.640878    ( 0.0000,  0.0000,  0.0000)
  42 O      9.861551    3.822345    7.505914    ( 0.0000,  0.0000,  0.0000)
  43 O      4.690678    5.733518    7.505914    ( 0.0000,  0.0000,  0.0000)
  44 O      7.629303    5.733518    8.393834    ( 0.0000,  0.0000,  0.0000)
  45 O      2.458430    3.822345    8.393834    ( 0.0000,  0.0000,  0.0000)
  46 O      6.244323    3.822345    6.887921    ( 0.0000,  0.0000,  0.0000)
  47 O      1.073450    5.733518    6.887921    ( 0.0000,  0.0000,  0.0000)
  48 O      9.803471    5.729405    9.617889    ( 0.0000,  0.0000,  0.0000)
  49 O      4.628410    3.836734    9.583150    ( 0.0000,  0.0000,  0.0000)
  50 Ti     2.702127    3.853993   10.330381    ( 0.0000,  0.0000,  0.0000)
  51 Ti     8.009199    5.757172   10.366899    ( 0.0000,  0.0000,  0.0000)
  52 Ti     0.498931    5.760284   11.299955    ( 0.0000,  0.0000,  0.0000)
  53 Ti     5.717718    3.819640   11.087235    ( 0.0000,  0.0000,  0.0000)
  54 O      0.910794    3.833979   11.097124    ( 0.0000,  0.0000,  0.0000)
  55 O      6.082713    5.747955   11.100400    ( 0.0000,  0.0000,  0.0000)
  56 O      9.028792    5.795146   11.991995    ( 0.0000,  0.0000,  0.0000)
  57 O      3.837706    3.823907   11.920064    ( 0.0000,  0.0000,  0.0000)
  58 O      7.559349    3.842333   10.452042    ( 0.0000,  0.0000,  0.0000)
  59 O      2.379572    5.742290   10.460256    ( 0.0000,  0.0000,  0.0000)
  60 O      0.899592    5.743006   13.212905    ( 0.0000,  0.0000,  0.0000)
  61 O      6.063902    3.832614   13.104782    ( 0.0000,  0.0000,  0.0000)
  62 Ti     4.076783    3.906178   13.776046    ( 0.0000,  0.0000,  0.0000)
  63 Ti     9.483952    5.744261   14.090803    ( 0.0000,  0.0000,  0.0000)
  64 Ti     1.943345    5.786052   14.961032    ( 0.0000,  0.0000,  0.0000)
  65 Ti     7.059734    3.875076   14.572897    ( 0.0000,  0.0000,  0.0000)
  66 O      2.346776    3.785592   14.621411    ( 0.0000,  0.0000,  0.0000)
  67 O      7.534554    5.736707   14.813637    ( 0.0000,  0.0000,  0.0000)
  68 O      0.213928    5.733650   15.597301    ( 0.0000,  0.0000,  0.0000)
  69 O      5.361855    4.011436   15.596070    ( 0.0000,  0.0000,  0.0000)
  70 O      8.961834    3.870296   13.977727    ( 0.0000,  0.0000,  0.0000)
  71 O      3.827776    5.746380   13.924227    ( 0.0000,  0.0000,  0.0000)
  72 O      8.476572    9.555862    6.000000    ( 0.0000,  0.0000,  0.0000)
  73 O      3.305699    7.644690    6.000000    ( 0.0000,  0.0000,  0.0000)
  74 Ti     1.412752    7.644690    6.752957    ( 0.0000,  0.0000,  0.0000)
  75 Ti     6.583625    9.555862    6.752957    ( 0.0000,  0.0000,  0.0000)
  76 Ti     9.522250    9.555862    7.640878    ( 0.0000,  0.0000,  0.0000)
  77 Ti     4.351376    7.644690    7.640878    ( 0.0000,  0.0000,  0.0000)
  78 O      9.861551    7.644690    7.505914    ( 0.0000,  0.0000,  0.0000)
  79 O      4.690678    9.555862    7.505914    ( 0.0000,  0.0000,  0.0000)
  80 O      7.629303    9.555862    8.393834    ( 0.0000,  0.0000,  0.0000)
  81 O      2.458430    7.644690    8.393834    ( 0.0000,  0.0000,  0.0000)
  82 O      6.244323    7.644690    6.887921    ( 0.0000,  0.0000,  0.0000)
  83 O      1.073450    9.555862    6.887921    ( 0.0000,  0.0000,  0.0000)
  84 O      9.809200    9.542994    9.604478    ( 0.0000,  0.0000,  0.0000)
  85 O      4.635582    7.650707    9.612064    ( 0.0000,  0.0000,  0.0000)
  86 Ti     2.773118    7.653520   10.320149    ( 0.0000,  0.0000,  0.0000)
  87 Ti     7.960459    9.575288   10.384013    ( 0.0000,  0.0000,  0.0000)
  88 Ti     0.489812    9.535412   11.203955    ( 0.0000,  0.0000,  0.0000)
  89 Ti     5.725783    7.620818   11.206707    ( 0.0000,  0.0000,  0.0000)
  90 O      0.912588    7.640647   11.100534    ( 0.0000,  0.0000,  0.0000)
  91 O      6.098348    9.562760   11.087979    ( 0.0000,  0.0000,  0.0000)
  92 O      9.038257    9.556379   11.979927    ( 0.0000,  0.0000,  0.0000)
  93 O      3.848894    7.645341   11.948493    ( 0.0000,  0.0000,  0.0000)
  94 O      7.556363    7.651066   10.461646    ( 0.0000,  0.0000,  0.0000)
  95 O      2.380365    9.542534   10.457930    ( 0.0000,  0.0000,  0.0000)
  96 O      0.929768    9.543269   13.169117    ( 0.0000,  0.0000,  0.0000)
  97 O      6.051759    7.697895   13.224152    ( 0.0000,  0.0000,  0.0000)
  98 Ti     4.174773    7.719349   13.814276    ( 0.0000,  0.0000,  0.0000)
  99 Ti     9.439171    9.683286   14.055570    ( 0.0000,  0.0000,  0.0000)
 100 Ti     1.893706    9.572975   14.765692    ( 0.0000,  0.0000,  0.0000)
 101 Ti     7.231932    7.707500   14.811773    ( 0.0000,  0.0000,  0.0000)
 102 O      2.353271    7.659138   14.805719    ( 0.0000,  0.0000,  0.0000)
 103 O      7.556369    9.662912   14.769944    ( 0.0000,  0.0000,  0.0000)
 104 O      0.209558    9.705005   15.535363    ( 0.0000,  0.0000,  0.0000)
 105 O      5.168735    7.594574   15.568167    ( 0.0000,  0.0000,  0.0000)
 106 O      9.005019    7.682772   14.136684    ( 0.0000,  0.0000,  0.0000)
 107 O      3.825951    9.554432   13.970716    ( 0.0000,  0.0000,  0.0000)
 108 V      5.734111    7.570826   17.210471    ( 0.0000,  0.0000,  0.0000)
 109 V      4.456287    4.692350   17.053071    ( 0.0000,  0.0000,  0.0000)
 110 O      2.690727    9.755097   16.942866    ( 0.0000,  0.0000,  0.0000)
 111 O      7.392774    7.828609   16.757270    ( 0.0000,  0.0000,  0.0000)
 112 O      4.101418    3.465416   18.047881    ( 0.0000,  0.0000,  0.0000)
 113 O      5.457980    5.898529   17.879566    ( 0.0000,  0.0000,  0.0000)
 114 O      4.995989    8.741504   18.061927    ( 0.0000,  0.0000,  0.0000)
 115 O      2.607119    1.668817   16.778562    ( 0.0000,  0.0000,  0.0000)
 116 O      2.994654    5.473094   16.563267    ( 0.0000,  0.0000,  0.0000)
 117 H      2.002377    9.487131   17.576864    ( 0.0000,  0.0000,  0.0000)
 118 H      2.968717    0.776480   16.926471    ( 0.0000,  0.0000,  0.0000)
 119 H      3.545114    9.395129   17.303781    ( 0.0000,  0.0000,  0.0000)
 120 H      3.127640    2.312184   17.328759    ( 0.0000,  0.0000,  0.0000)

Unit cell:
           periodic     x           y           z      points  spacing
  1. axis:    yes   10.341746    0.000000    0.000000    54     0.1915
  2. axis:    yes   -0.000000   11.467000    0.000000    60     0.1911
  3. axis:    no     0.000000    0.000000   23.497201   125     0.1880

  Lengths:  10.341746  11.467000  23.497201
  Angles:   90.000000  90.000000  90.000000

Effective grid spacing dv^(1/3) = 0.1902

                     log10-error:    total        iterations:
           time      wfs    density  energy       fermi  poisson
iter:   1  03:40:05  -2.85   +inf  -985.996240    3             
iter:   2  03:41:02  -3.77  -3.15  -985.993836    2             
iter:   3  03:41:59  -3.53  -3.17  -985.980713    2             
iter:   4  03:42:56  -4.70  -3.39  -985.980433    2             
iter:   5  03:43:52  -4.41  -3.43  -985.980664    2             
iter:   6  03:44:49  -4.11  -3.49  -985.978953    2             
iter:   7  03:45:46  -5.15  -3.68  -985.977990    2             
iter:   8  03:46:43  -5.62  -3.92  -985.977888    2             
iter:   9  03:47:40  -5.63  -4.11  -985.977917    2             
iter:  10  03:48:37  -5.86  -4.15  -985.977854    2             
iter:  11  03:49:34  -6.48  -4.41  -985.977849    2             
iter:  12  03:50:31  -7.33  -4.38  -985.977845    1             
iter:  13  03:51:28  -7.03  -4.52  -985.977842    1             
iter:  14  03:52:25  -7.13  -4.65  -985.977845    1             
iter:  15  03:53:22  -7.24  -4.68  -985.977840    1             
iter:  16  03:54:18  -7.83  -4.79  -985.977839    1             

Converged after 16 iterations.

Dipole moment: (-16.435186, -22.012090, -0.706708) |e|*Ang

Energy contributions relative to reference atoms: (reference = -1048982.797703)

Kinetic:       +703.115256
Potential:     -898.066419
External:        +0.000000
XC:            -798.894601
Entropy (-ST):   -0.000500
Local:           +7.868175
--------------------------
Free energy:   -985.978089
Extrapolated:  -985.977839

Fermi level: -0.53736

Showing only first 2 kpts
 Kpt  Band  Eigenvalues  Occupancy
  0   466     -1.60646    0.22222
  0   467     -1.60316    0.22222
  0   468      0.31345    0.00004
  0   469      0.47012    0.00001

  1   466     -1.62063    0.44444
  1   467     -1.59242    0.44443
  1   468      0.50514    0.00001
  1   469      0.60718    0.00000



Forces in eV/Ang:
  0 O    -1.89460    0.00256    1.52707
  1 O    -1.94067    0.00059    1.52328
  2 Ti    3.82645    0.00411    1.96881
  3 Ti    3.86631   -0.03101    1.97916
  4 Ti   -1.90781   -0.04145   -1.75765
  5 Ti   -1.84892    0.00311   -1.97900
  6 O     0.90058   -0.03534   -0.20450
  7 O     0.85356    0.07226   -0.18996
  8 O    -0.66756    0.03731   -0.69403
  9 O    -0.71780   -0.02002   -0.66249
 10 O    -0.27893   -0.00277   -0.86256
 11 O    -0.22153    0.10357   -0.91375
 12 O    -0.06837    0.00408    0.03195
 13 O    -0.05294   -0.00044    0.05675
 14 Ti    0.01928    0.00639   -0.05336
 15 Ti    0.05444    0.02552   -0.03372
 16 Ti   -0.00186    0.01663    0.08496
 17 Ti    0.05860    0.01662    0.00272
 18 O     0.06512    0.03696   -0.03418
 19 O     0.04972    0.01205   -0.05777
 20 O     0.01775    0.01031    0.05205
 21 O     0.02958    0.01161    0.02939
 22 O     0.01867    0.00158    0.07150
 23 O     0.01890    0.02057    0.04081
 24 O     0.01440    0.01234    0.03910
 25 O    -0.04237    0.02316    0.02061
 26 Ti    0.07363   -0.07423   -0.03628
 27 Ti    0.07208   -0.01500    0.04015
 28 Ti   -0.05941    0.04877    0.08300
 29 Ti    0.00728    0.01149    0.00744
 30 O    -0.00862    0.04315   -0.17519
 31 O    -0.03919    0.02146    0.10525
 32 O     0.02889   -0.00120   -0.03832
 33 O     0.04378    0.01451   -0.07179
 34 O    -0.15798    0.01090    0.14267
 35 O    -0.09709    0.12024    0.11006
 36 O    -1.85854   -0.00129    1.53998
 37 O    -1.98327    0.00911    1.57701
 38 Ti    3.59144   -0.06116    1.72978
 39 Ti    3.87114    0.00942    1.99188
 40 Ti   -1.91281   -0.00819   -1.52321
 41 Ti   -1.55511   -0.04353   -1.98133
 42 O     0.95556    0.02866   -0.21187
 43 O     0.83241    0.02374   -0.20246
 44 O    -0.69059    0.03921   -0.71216
 45 O    -0.74248    0.01180   -0.68637
 46 O    -0.32494    0.02069   -0.88325
 47 O    -0.20579    0.00078   -0.88670
 48 O    -0.03359    0.01038    0.02302
 49 O    -0.04295    0.00602    0.05416
 50 Ti    0.02875   -0.02469   -0.05331
 51 Ti    0.01173   -0.00537    0.06326
 52 Ti    0.03019   -0.02793    0.02073
 53 Ti   -0.00833    0.03142    0.01998
 54 O     0.04727   -0.02227   -0.01321
 55 O     0.10082   -0.04491   -0.01629
 56 O    -0.00751   -0.01603    0.07120
 57 O     0.08272   -0.00445    0.04672
 58 O     0.02929   -0.02226    0.06974
 59 O     0.01547   -0.00937    0.12456
 60 O     0.05512    0.01095   -0.06962
 61 O    -0.06925   -0.00101    0.01601
 62 Ti    0.01642   -0.11747    0.09282
 63 Ti   -0.03469    0.06133   -0.10811
 64 Ti   -0.08465   -0.10216   -0.08180
 65 Ti    0.01810   -0.03909    0.10271
 66 O     0.05202    0.07687    0.19513
 67 O     0.01264    0.04123    0.07107
 68 O     0.01444    0.00302   -0.16092
 69 O    -0.10771   -0.02621   -0.12674
 70 O    -0.12169   -0.00571    0.13389
 71 O    -0.15125    0.03197   -0.03013
 72 O    -1.86325   -0.00982    1.54750
 73 O    -1.94345   -0.00535    1.58146
 74 Ti    3.61961    0.05827    1.76145
 75 Ti    3.84312    0.02947    2.00039
 76 Ti   -1.93308    0.04188   -1.73032
 77 Ti   -1.50819    0.03597   -1.66616
 78 O     0.95403   -0.02950   -0.21702
 79 O     0.85446   -0.06653   -0.20207
 80 O    -0.62990    0.00620   -0.60752
 81 O    -0.69852   -0.01544   -0.67145
 82 O    -0.32910   -0.01814   -0.87036
 83 O    -0.23029   -0.10600   -0.92042
 84 O    -0.08365    0.00651    0.03061
 85 O    -0.02679   -0.00231    0.02374
 86 Ti   -0.02305   -0.00848    0.00468
 87 Ti    0.08664   -0.02566   -0.00344
 88 Ti    0.03638    0.01518    0.07448
 89 Ti    0.00587    0.06710    0.03938
 90 O     0.09519    0.03080   -0.02395
 91 O     0.04536    0.00503   -0.02993
 92 O    -0.00721    0.01577    0.05942
 93 O     0.03792    0.02521    0.07699
 94 O     0.02775   -0.00807    0.08751
 95 O     0.02804    0.03925    0.09085
 96 O    -0.00227    0.01189    0.02743
 97 O    -0.01832    0.00872   -0.08296
 98 Ti   -0.09733   -0.08683    0.05191
 99 Ti    0.04310   -0.07473   -0.01754
100 Ti   -0.13863    0.01837   -0.01172
101 Ti   -0.06016    0.00828   -0.00832
102 O     0.03634    0.03915    0.02843
103 O    -0.01056   -0.05865   -0.06087
104 O     0.05358   -0.08668   -0.05435
105 O     0.06450   -0.07774   -0.10812
106 O    -0.06217    0.01606   -0.04683
107 O    -0.10295    0.01133    0.15249
108 V     0.02491   -0.15092    0.03919
109 V     0.08205    0.09590   -0.06855
110 O    -0.21469    0.12209   -0.34446
111 O    -0.00843    0.01242    0.02213
112 O    -0.01485   -0.03361    0.02379
113 O     0.04587    0.03102    0.07962
114 O     0.05116    0.10070    0.04296
115 O    -0.23899   -0.02234   -0.32226
116 O    -0.01194   -0.02937    0.06081
117 H    -0.10610   -0.02789    0.06260
118 H     0.08810   -0.17530    0.07732
119 H     0.24359   -0.10064    0.11225
120 H     0.20724    0.19972    0.20579

System changes: positions 

Initializing position-dependent things.

Density initialized from wave functions
                                                
                                                
                                                
                                                
                                                
                                                
                  H O H  O                      
                          V O                   
              O     O   O     O                 
                  TO V   O      O               
                  O   O       Ti     Ti         
           O   TH       O         O             
              OH O    TO   OTO    Ti            
         O     O    OTi    Ti    O O            
             Tii   TiO    OOO   O               
              O   O     TiTi   TiOi             
          O Ti   TiOi     O  O O     O          
            O   O     OTi     TiO               
                TiO      O  O  O   O Ti         
         Ti   O O    O Oi    Ti     O           
               Ti          OTi    Ti            
             O O    O O         O               
                    Ti     Oi     O             
             Oi     O    O      Ti              
           O      Ti    Ti     O                
          Ti          O      O                  
               O                                
                                                
                                                
                                                
                                                

Positions:
   0 O      8.476572    1.911173    6.000000    ( 0.0000,  0.0000,  0.0000)
   1 O      3.305699    0.000000    6.000000    ( 0.0000,  0.0000,  0.0000)
   2 Ti     1.412752    0.000000    6.752957    ( 0.0000,  0.0000,  0.0000)
   3 Ti     6.583625    1.911173    6.752957    ( 0.0000,  0.0000,  0.0000)
   4 Ti     9.522250    1.911173    7.640878    ( 0.0000,  0.0000,  0.0000)
   5 Ti     4.351376    0.000000    7.640878    ( 0.0000,  0.0000,  0.0000)
   6 O      9.861551    0.000000    7.505914    ( 0.0000,  0.0000,  0.0000)
   7 O      4.690678    1.911173    7.505914    ( 0.0000,  0.0000,  0.0000)
   8 O      7.629303    1.911173    8.393834    ( 0.0000,  0.0000,  0.0000)
   9 O      2.458430    0.000000    8.393834    ( 0.0000,  0.0000,  0.0000)
  10 O      6.244323    0.000000    6.887921    ( 0.0000,  0.0000,  0.0000)
  11 O      1.073450    1.911173    6.887921    ( 0.0000,  0.0000,  0.0000)
  12 O      9.802879    1.901577    9.596728    ( 0.0000,  0.0000,  0.0000)
  13 O      4.620706   11.469588    9.580148    ( 0.0000,  0.0000,  0.0000)
  14 Ti     2.752260   11.462549   10.375988    ( 0.0000,  0.0000,  0.0000)
  15 Ti     7.966729    1.906877   10.374108    ( 0.0000,  0.0000,  0.0000)
  16 Ti     0.515219    1.900487   11.190502    ( 0.0000,  0.0000,  0.0000)
  17 Ti     5.670067   11.455965   11.125694    ( 0.0000,  0.0000,  0.0000)
  18 O      0.915646   11.452699   11.089092    ( 0.0000,  0.0000,  0.0000)
  19 O      6.096737    1.920659   11.061947    ( 0.0000,  0.0000,  0.0000)
  20 O      9.023854    1.955949   11.956642    ( 0.0000,  0.0000,  0.0000)
  21 O      3.867402   11.455091   11.940866    ( 0.0000,  0.0000,  0.0000)
  22 O      7.573927   11.471785   10.457377    ( 0.0000,  0.0000,  0.0000)
  23 O      2.367807    1.911217   10.455270    ( 0.0000,  0.0000,  0.0000)
  24 O      0.911551    1.868555   13.119987    ( 0.0000,  0.0000,  0.0000)
  25 O      6.104654    0.060925   13.060354    ( 0.0000,  0.0000,  0.0000)
  26 Ti     4.206150    0.074763   13.961867    ( 0.0000,  0.0000,  0.0000)
  27 Ti     9.412927    1.950472   13.994466    ( 0.0000,  0.0000,  0.0000)
  28 Ti     1.865005    1.909480   14.744873    ( 0.0000,  0.0000,  0.0000)
  29 Ti     7.005755    0.064350   14.601429    ( 0.0000,  0.0000,  0.0000)
  30 O      2.388625   11.478218   14.724745    ( 0.0000,  0.0000,  0.0000)
  31 O      7.532672    1.973469   14.826688    ( 0.0000,  0.0000,  0.0000)
  32 O      0.171666    1.992256   15.466849    ( 0.0000,  0.0000,  0.0000)
  33 O      5.385626   11.485141   15.444076    ( 0.0000,  0.0000,  0.0000)
  34 O      9.014925    0.067138   13.976209    ( 0.0000,  0.0000,  0.0000)
  35 O      3.872263    1.925290   13.964581    ( 0.0000,  0.0000,  0.0000)
  36 O      8.476572    5.733518    6.000000    ( 0.0000,  0.0000,  0.0000)
  37 O      3.305699    3.822345    6.000000    ( 0.0000,  0.0000,  0.0000)
  38 Ti     1.412752    3.822345    6.752957    ( 0.0000,  0.0000,  0.0000)
  39 Ti     6.583625    5.733518    6.752957    ( 0.0000,  0.0000,  0.0000)
  40 Ti     9.522250    5.733518    7.640878    ( 0.0000,  0.0000,  0.0000)
  41 Ti     4.351376    3.822345    7.640878    ( 0.0000,  0.0000,  0.0000)
  42 O      9.861551    3.822345    7.505914    ( 0.0000,  0.0000,  0.0000)
  43 O      4.690678    5.733518    7.505914    ( 0.0000,  0.0000,  0.0000)
  44 O      7.629303    5.733518    8.393834    ( 0.0000,  0.0000,  0.0000)
  45 O      2.458430    3.822345    8.393834    ( 0.0000,  0.0000,  0.0000)
  46 O      6.244323    3.822345    6.887921    ( 0.0000,  0.0000,  0.0000)
  47 O      1.073450    5.733518    6.887921    ( 0.0000,  0.0000,  0.0000)
  48 O      9.801276    5.729923    9.620333    ( 0.0000,  0.0000,  0.0000)
  49 O      4.622225    3.837198    9.584124    ( 0.0000,  0.0000,  0.0000)
  50 Ti     2.705914    3.851892   10.328029    ( 0.0000,  0.0000,  0.0000)
  51 Ti     8.006777    5.756355   10.367308    ( 0.0000,  0.0000,  0.0000)
  52 Ti     0.502697    5.758777   11.298652    ( 0.0000,  0.0000,  0.0000)
  53 Ti     5.715910    3.821335   11.092165    ( 0.0000,  0.0000,  0.0000)
  54 O      0.914321    3.833841   11.096400    ( 0.0000,  0.0000,  0.0000)
  55 O      6.091054    5.744642   11.098894    ( 0.0000,  0.0000,  0.0000)
  56 O      9.028083    5.794488   11.999982    ( 0.0000,  0.0000,  0.0000)
  57 O      3.840747    3.823555   11.917577    ( 0.0000,  0.0000,  0.0000)
  58 O      7.562484    3.841439   10.455612    ( 0.0000,  0.0000,  0.0000)
  59 O      2.379040    5.743016   10.468183    ( 0.0000,  0.0000,  0.0000)
  60 O      0.903335    5.743649   13.207801    ( 0.0000,  0.0000,  0.0000)
  61 O      6.060205    3.832769   13.107538    ( 0.0000,  0.0000,  0.0000)
  62 Ti     4.081605    3.900191   13.779215    ( 0.0000,  0.0000,  0.0000)
  63 Ti     9.477794    5.747716   14.084985    ( 0.0000,  0.0000,  0.0000)
  64 Ti     1.943786    5.780062   14.954928    ( 0.0000,  0.0000,  0.0000)
  65 Ti     7.061233    3.873197   14.577311    ( 0.0000,  0.0000,  0.0000)
  66 O      2.345934    3.791009   14.635304    ( 0.0000,  0.0000,  0.0000)
  67 O      7.536786    5.739692   14.817826    ( 0.0000,  0.0000,  0.0000)
  68 O      0.213443    5.733558   15.589609    ( 0.0000,  0.0000,  0.0000)
  69 O      5.356335    4.008217   15.586672    ( 0.0000,  0.0000,  0.0000)
  70 O      8.954105    3.869286   13.986047    ( 0.0000,  0.0000,  0.0000)
  71 O      3.817310    5.751115   13.923287    ( 0.0000,  0.0000,  0.0000)
  72 O      8.476572    9.555862    6.000000    ( 0.0000,  0.0000,  0.0000)
  73 O      3.305699    7.644690    6.000000    ( 0.0000,  0.0000,  0.0000)
  74 Ti     1.412752    7.644690    6.752957    ( 0.0000,  0.0000,  0.0000)
  75 Ti     6.583625    9.555862    6.752957    ( 0.0000,  0.0000,  0.0000)
  76 Ti     9.522250    9.555862    7.640878    ( 0.0000,  0.0000,  0.0000)
  77 Ti     4.351376    7.644690    7.640878    ( 0.0000,  0.0000,  0.0000)
  78 O      9.861551    7.644690    7.505914    ( 0.0000,  0.0000,  0.0000)
  79 O      4.690678    9.555862    7.505914    ( 0.0000,  0.0000,  0.0000)
  80 O      7.629303    9.555862    8.393834    ( 0.0000,  0.0000,  0.0000)
  81 O      2.458430    7.644690    8.393834    ( 0.0000,  0.0000,  0.0000)
  82 O      6.244323    7.644690    6.887921    ( 0.0000,  0.0000,  0.0000)
  83 O      1.073450    9.555862    6.887921    ( 0.0000,  0.0000,  0.0000)
  84 O      9.802399    9.543377    9.606162    ( 0.0000,  0.0000,  0.0000)
  85 O      4.631840    7.650705    9.612455    ( 0.0000,  0.0000,  0.0000)
  86 Ti     2.771561    7.653400   10.320867    ( 0.0000,  0.0000,  0.0000)
  87 Ti     7.962905    9.574270   10.381408    ( 0.0000,  0.0000,  0.0000)
  88 Ti     0.493887    9.536146   11.207334    ( 0.0000,  0.0000,  0.0000)
  89 Ti     5.725181    7.624574   11.210742    ( 0.0000,  0.0000,  0.0000)
  90 O      0.920177    7.641936   11.099110    ( 0.0000,  0.0000,  0.0000)
  91 O      6.104556    9.562340   11.085280    ( 0.0000,  0.0000,  0.0000)
  92 O      9.038322    9.557033   11.986725    ( 0.0000,  0.0000,  0.0000)
  93 O      3.850335    7.646063   11.950213    ( 0.0000,  0.0000,  0.0000)
  94 O      7.558446    7.651441   10.466725    ( 0.0000,  0.0000,  0.0000)
  95 O      2.380733    9.544166   10.463848    ( 0.0000,  0.0000,  0.0000)
  96 O      0.926791    9.543795   13.162457    ( 0.0000,  0.0000,  0.0000)
  97 O      6.052121    7.698531   13.217059    ( 0.0000,  0.0000,  0.0000)
  98 Ti     4.169617    7.713486   13.819139    ( 0.0000,  0.0000,  0.0000)
  99 Ti     9.438345    9.677446   14.051499    ( 0.0000,  0.0000,  0.0000)
 100 Ti     1.893878    9.573284   14.766375    ( 0.0000,  0.0000,  0.0000)
 101 Ti     7.227198    7.706993   14.811503    ( 0.0000,  0.0000,  0.0000)
 102 O      2.354915    7.662086   14.807394    ( 0.0000,  0.0000,  0.0000)
 103 O      7.558034    9.659971   14.765835    ( 0.0000,  0.0000,  0.0000)
 104 O      0.210051    9.700413   15.540534    ( 0.0000,  0.0000,  0.0000)
 105 O      5.173486    7.589614   15.564500    ( 0.0000,  0.0000,  0.0000)
 106 O      9.002551    7.684397   14.133195    ( 0.0000,  0.0000,  0.0000)
 107 O      3.816738    9.557822   13.980786    ( 0.0000,  0.0000,  0.0000)
 108 V      5.734363    7.569254   17.212766    ( 0.0000,  0.0000,  0.0000)
 109 V      4.457594    4.694761   17.053527    ( 0.0000,  0.0000,  0.0000)
 110 O      2.687827    9.751424   16.937536    ( 0.0000,  0.0000,  0.0000)
 111 O      7.390282    7.828314   16.759326    ( 0.0000,  0.0000,  0.0000)
 112 O      4.100863    3.467154   18.044518    ( 0.0000,  0.0000,  0.0000)
 113 O      5.460603    5.898861   17.885589    ( 0.0000,  0.0000,  0.0000)
 114 O      5.000759    8.743445   18.061180    ( 0.0000,  0.0000,  0.0000)
 115 O      2.610157    1.668706   16.774983    ( 0.0000,  0.0000,  0.0000)
 116 O      2.995687    5.469298   16.568195    ( 0.0000,  0.0000,  0.0000)
 117 H      2.003457    9.488640   17.573616    ( 0.0000,  0.0000,  0.0000)
 118 H      2.967669    0.778089   16.927792    ( 0.0000,  0.0000,  0.0000)
 119 H      3.544098    9.395978   17.303860    ( 0.0000,  0.0000,  0.0000)
 120 H      3.129218    2.312762   17.329939    ( 0.0000,  0.0000,  0.0000)

Unit cell:
           periodic     x           y           z      points  spacing
  1. axis:    yes   10.341746    0.000000    0.000000    54     0.1915
  2. axis:    yes   -0.000000   11.467000    0.000000    60     0.1911
  3. axis:    no     0.000000    0.000000   23.497201   125     0.1880

  Lengths:  10.341746  11.467000  23.497201
  Angles:   90.000000  90.000000  90.000000

Effective grid spacing dv^(1/3) = 0.1902

                     log10-error:    total        iterations:
           time      wfs    density  energy       fermi  poisson
iter:   1  03:55:36  -2.81   +inf  -986.018956    2             
iter:   2  03:56:33  -3.72  -3.19  -986.020319    1             
iter:   3  03:57:30  -3.90  -3.20  -986.014252    2             
iter:   4  03:58:27  -4.41  -3.44  -986.014302    2             
iter:   5  03:59:24  -4.16  -3.49  -986.015369    1             
iter:   6  04:00:20  -4.44  -3.55  -986.013258    2             
iter:   7  04:01:17  -5.04  -3.88  -986.013158    2             
iter:   8  04:02:14  -5.88  -4.00  -986.013053    1             
iter:   9  04:03:11  -5.60  -4.17  -986.013105    1             
iter:  10  04:04:08  -5.74  -4.17  -986.013045    2             
iter:  11  04:05:05  -6.56  -4.40  -986.013041    1             
iter:  12  04:06:02  -6.33  -4.34  -986.013046    1             
iter:  13  04:06:59  -7.16  -4.42  -986.013033    1             
iter:  14  04:07:56  -6.65  -4.42  -986.013024    1             
iter:  15  04:08:52  -6.89  -4.52  -986.013018    1             
iter:  16  04:09:49  -7.10  -4.61  -986.013014    1             
iter:  17  04:10:46  -7.33  -4.88  -986.013014    1             
iter:  18  04:11:43  -7.72  -4.95  -986.013012    1             

Converged after 18 iterations.

Dipole moment: (-16.674527, -22.664574, -0.707002) |e|*Ang

Energy contributions relative to reference atoms: (reference = -1048982.797703)

Kinetic:       +702.281836
Potential:     -897.391167
External:        +0.000000
XC:            -798.780283
Entropy (-ST):   -0.000497
Local:           +7.876850
--------------------------
Free energy:   -986.013261
Extrapolated:  -986.013012

Fermi level: -0.54031

Showing only first 2 kpts
 Kpt  Band  Eigenvalues  Occupancy
  0   466     -1.61046    0.22222
  0   467     -1.60767    0.22222
  0   468      0.31090    0.00004
  0   469      0.46887    0.00001

  1   466     -1.62511    0.44444
  1   467     -1.59665    0.44443
  1   468      0.50269    0.00001
  1   469      0.60703    0.00000



Forces in eV/Ang:
  0 O    -1.89463    0.00255    1.52905
  1 O    -1.94222    0.00129    1.52494
  2 Ti    3.81920    0.00057    1.95997
  3 Ti    3.86209   -0.02995    1.97344
  4 Ti   -1.90249   -0.04110   -1.73601
  5 Ti   -1.83847   -0.00260   -1.96977
  6 O     0.90327   -0.03164   -0.20413
  7 O     0.85473    0.07143   -0.18813
  8 O    -0.68787    0.03606   -0.71761
  9 O    -0.73737   -0.01986   -0.70083
 10 O    -0.27974    0.00135   -0.86039
 11 O    -0.22128    0.10152   -0.91280
 12 O     0.01563    0.00342    0.01541
 13 O     0.03000    0.00070    0.06602
 14 Ti    0.01329    0.00509   -0.00571
 15 Ti    0.08419    0.02321    0.01835
 16 Ti   -0.02709    0.01908    0.09214
 17 Ti    0.05273    0.00941   -0.02807
 18 O    -0.00001    0.03493   -0.02039
 19 O    -0.04371    0.03439   -0.01816
 20 O     0.01968    0.01095    0.02400
 21 O     0.03869    0.01678    0.01401
 22 O     0.02378   -0.00176    0.06111
 23 O     0.04319    0.02137    0.02572
 24 O     0.00871    0.02778    0.00990
 25 O     0.01174    0.02525    0.02242
 26 Ti    0.03974   -0.02951    0.04435
 27 Ti    0.10857   -0.04600    0.10552
 28 Ti   -0.11277    0.04880    0.07465
 29 Ti   -0.07598   -0.00873   -0.00257
 30 O    -0.05985    0.04741   -0.14865
 31 O    -0.06632    0.04081    0.08886
 32 O     0.03596   -0.00240   -0.08904
 33 O     0.04423    0.00296   -0.10181
 34 O    -0.08049   -0.00325    0.11965
 35 O    -0.05523    0.08698    0.06241
 36 O    -1.85541   -0.00180    1.54245
 37 O    -1.98391    0.00839    1.57706
 38 Ti    3.59045   -0.05601    1.72722
 39 Ti    3.86811    0.01417    1.99432
 40 Ti   -1.91561   -0.00491   -1.49694
 41 Ti   -1.55214   -0.03704   -1.97814
 42 O     0.95625    0.02674   -0.21046
 43 O     0.83462    0.01731   -0.20364
 44 O    -0.69448    0.03861   -0.71157
 45 O    -0.76162    0.01584   -0.71306
 46 O    -0.32493    0.01618   -0.88256
 47 O    -0.20601   -0.00414   -0.88973
 48 O    -0.00827    0.01159   -0.00124
 49 O     0.04196    0.00444    0.06136
 50 Ti   -0.00321   -0.01635   -0.02827
 51 Ti    0.06015   -0.00011    0.11728
 52 Ti   -0.00346   -0.03181    0.05852
 53 Ti    0.02560    0.02897   -0.03673
 54 O     0.00518   -0.03486   -0.00623
 55 O     0.02135   -0.00792   -0.00113
 56 O     0.01037   -0.02152   -0.01524
 57 O     0.09432   -0.00268    0.14086
 58 O     0.01438   -0.02186    0.06830
 59 O     0.04584   -0.03218    0.09256
 60 O     0.03405    0.00792   -0.03967
 61 O    -0.03089   -0.00702    0.01007
 62 Ti   -0.05426   -0.12853    0.10693
 63 Ti    0.02793    0.04762   -0.11011
 64 Ti   -0.14279   -0.05826   -0.05573
 65 Ti   -0.01234   -0.04123    0.06544
 66 O     0.09228    0.03267    0.10965
 67 O    -0.01982    0.01504    0.05933
 68 O     0.01302    0.00810   -0.14857
 69 O    -0.12291    0.03247   -0.02712
 70 O    -0.06423    0.01157    0.10877
 71 O    -0.09017   -0.03656   -0.04155
 72 O    -1.86300   -0.00913    1.54776
 73 O    -1.94706   -0.00527    1.57842
 74 Ti    3.62645    0.05641    1.76506
 75 Ti    3.84141    0.02382    1.99992
 76 Ti   -1.93327    0.03804   -1.70870
 77 Ti   -1.51021    0.03555   -1.63771
 78 O     0.95336   -0.02958   -0.21580
 79 O     0.85572   -0.05854   -0.20283
 80 O    -0.65380    0.00684   -0.63140
 81 O    -0.71546   -0.01468   -0.67872
 82 O    -0.32623   -0.01788   -0.87651
 83 O    -0.22991   -0.09874   -0.91912
 84 O    -0.00368    0.00472    0.03200
 85 O     0.02498   -0.00574    0.03287
 86 Ti    0.00965   -0.01502    0.00894
 87 Ti    0.11029   -0.02849    0.05382
 88 Ti   -0.00581    0.02686    0.07882
 89 Ti    0.03086    0.05915    0.01069
 90 O     0.01110    0.03574   -0.01062
 91 O    -0.05080    0.01665   -0.00212
 92 O    -0.00358    0.02019   -0.01767
 93 O     0.03255    0.04148    0.09330
 94 O     0.02707   -0.02181    0.07788
 95 O     0.05194    0.04009    0.06639
 96 O     0.03452    0.01134    0.15588
 97 O    -0.03053    0.00296   -0.00806
 98 Ti   -0.11431   -0.06374    0.00326
 99 Ti    0.05784   -0.02363    0.03821
100 Ti   -0.19175    0.03589   -0.00594
101 Ti   -0.04711    0.03239   -0.02903
102 O     0.02213   -0.00486    0.02217
103 O    -0.06173   -0.05799   -0.03981
[...]
   9 O      2.458430    0.000000    8.393834    ( 0.0000,  0.0000,  0.0000)
  10 O      6.244323    0.000000    6.887921    ( 0.0000,  0.0000,  0.0000)
  11 O      1.073450    1.911173    6.887921    ( 0.0000,  0.0000,  0.0000)
  12 O      9.811972    1.914155    9.618742    ( 0.0000,  0.0000,  0.0000)
  13 O      4.626961   11.479679    9.594043    ( 0.0000,  0.0000,  0.0000)
  14 Ti     2.772756   11.469400   10.390842    ( 0.0000,  0.0000,  0.0000)
  15 Ti     7.994374    1.919310   10.391436    ( 0.0000,  0.0000,  0.0000)
  16 Ti     0.511127    1.910942   11.241722    ( 0.0000,  0.0000,  0.0000)
  17 Ti     5.690308   11.485160   11.135299    ( 0.0000,  0.0000,  0.0000)
  18 O      0.926159   11.470417   11.100147    ( 0.0000,  0.0000,  0.0000)
  19 O      6.103367    1.932346   11.054279    ( 0.0000,  0.0000,  0.0000)
  20 O      9.033808    1.945604   11.998563    ( 0.0000,  0.0000,  0.0000)
  21 O      3.880425   11.459773   11.968409    ( 0.0000,  0.0000,  0.0000)
  22 O      7.594549   11.481462   10.493832    ( 0.0000,  0.0000,  0.0000)
  23 O      2.397289    1.916727   10.501205    ( 0.0000,  0.0000,  0.0000)
  24 O      0.903057    1.902732   13.178478    ( 0.0000,  0.0000,  0.0000)
  25 O      6.097035    0.099505   13.079895    ( 0.0000,  0.0000,  0.0000)
  26 Ti     4.198703   -0.001462   13.987137    ( 0.0000,  0.0000,  0.0000)
  27 Ti     9.422972    1.944063   14.071105    ( 0.0000,  0.0000,  0.0000)
  28 Ti     1.864224    1.905334   14.815542    ( 0.0000,  0.0000,  0.0000)
  29 Ti     6.996351    0.068436   14.617425    ( 0.0000,  0.0000,  0.0000)
  30 O      2.349623   11.477003   14.688634    ( 0.0000,  0.0000,  0.0000)
  31 O      7.506508    1.975770   14.870094    ( 0.0000,  0.0000,  0.0000)
  32 O      0.177222    1.985562   15.543754    ( 0.0000,  0.0000,  0.0000)
  33 O      5.380052   11.461033   15.461037    ( 0.0000,  0.0000,  0.0000)
  34 O      9.012331    0.064380   14.104462    ( 0.0000,  0.0000,  0.0000)
  35 O      3.868173    1.927406   14.070896    ( 0.0000,  0.0000,  0.0000)
  36 O      8.476572    5.733518    6.000000    ( 0.0000,  0.0000,  0.0000)
  37 O      3.305699    3.822345    6.000000    ( 0.0000,  0.0000,  0.0000)
  38 Ti     1.412752    3.822345    6.752957    ( 0.0000,  0.0000,  0.0000)
  39 Ti     6.583625    5.733518    6.752957    ( 0.0000,  0.0000,  0.0000)
  40 Ti     9.522250    5.733518    7.640878    ( 0.0000,  0.0000,  0.0000)
  41 Ti     4.351376    3.822345    7.640878    ( 0.0000,  0.0000,  0.0000)
  42 O      9.861551    3.822345    7.505914    ( 0.0000,  0.0000,  0.0000)
  43 O      4.690678    5.733518    7.505914    ( 0.0000,  0.0000,  0.0000)
  44 O      7.629303    5.733518    8.393834    ( 0.0000,  0.0000,  0.0000)
  45 O      2.458430    3.822345    8.393834    ( 0.0000,  0.0000,  0.0000)
  46 O      6.244323    3.822345    6.887921    ( 0.0000,  0.0000,  0.0000)
  47 O      1.073450    5.733518    6.887921    ( 0.0000,  0.0000,  0.0000)
  48 O      9.808762    5.739607    9.627715    ( 0.0000,  0.0000,  0.0000)
  49 O      4.629885    3.849107    9.599160    ( 0.0000,  0.0000,  0.0000)
  50 Ti     2.735737    3.829102   10.340673    ( 0.0000,  0.0000,  0.0000)
  51 Ti     8.023534    5.757474   10.387336    ( 0.0000,  0.0000,  0.0000)
  52 Ti     0.530962    5.754341   11.303294    ( 0.0000,  0.0000,  0.0000)
  53 Ti     5.724152    3.844900   11.117963    ( 0.0000,  0.0000,  0.0000)
  54 O      0.928085    3.829770   11.096856    ( 0.0000,  0.0000,  0.0000)
  55 O      6.101231    5.750833   11.098170    ( 0.0000,  0.0000,  0.0000)
  56 O      9.040375    5.766098   12.013298    ( 0.0000,  0.0000,  0.0000)
  57 O      3.863786    3.789258   11.955286    ( 0.0000,  0.0000,  0.0000)
  58 O      7.588831    3.844108   10.499292    ( 0.0000,  0.0000,  0.0000)
  59 O      2.414011    5.740418   10.514310    ( 0.0000,  0.0000,  0.0000)
  60 O      0.906639    5.726940   13.203409    ( 0.0000,  0.0000,  0.0000)
  61 O      6.067847    3.821837   13.135224    ( 0.0000,  0.0000,  0.0000)
  62 Ti     4.080682    3.812971   13.827926    ( 0.0000,  0.0000,  0.0000)
  63 Ti     9.458876    5.748112   14.071449    ( 0.0000,  0.0000,  0.0000)
  64 Ti     1.922991    5.764242   14.953549    ( 0.0000,  0.0000,  0.0000)
  65 Ti     7.049245    3.869878   14.617195    ( 0.0000,  0.0000,  0.0000)
  66 O      2.344805    3.787718   14.699767    ( 0.0000,  0.0000,  0.0000)
  67 O      7.528360    5.738830   14.829637    ( 0.0000,  0.0000,  0.0000)
  68 O      0.197272    5.757087   15.574472    ( 0.0000,  0.0000,  0.0000)
  69 O      5.316150    4.029171   15.589970    ( 0.0000,  0.0000,  0.0000)
  70 O      8.953625    3.858269   14.085039    ( 0.0000,  0.0000,  0.0000)
  71 O      3.774471    5.737585   13.910761    ( 0.0000,  0.0000,  0.0000)
  72 O      8.476572    9.555862    6.000000    ( 0.0000,  0.0000,  0.0000)
  73 O      3.305699    7.644690    6.000000    ( 0.0000,  0.0000,  0.0000)
  74 Ti     1.412752    7.644690    6.752957    ( 0.0000,  0.0000,  0.0000)
  75 Ti     6.583625    9.555862    6.752957    ( 0.0000,  0.0000,  0.0000)
  76 Ti     9.522250    9.555862    7.640878    ( 0.0000,  0.0000,  0.0000)
  77 Ti     4.351376    7.644690    7.640878    ( 0.0000,  0.0000,  0.0000)
  78 O      9.861551    7.644690    7.505914    ( 0.0000,  0.0000,  0.0000)
  79 O      4.690678    9.555862    7.505914    ( 0.0000,  0.0000,  0.0000)
  80 O      7.629303    9.555862    8.393834    ( 0.0000,  0.0000,  0.0000)
  81 O      2.458430    7.644690    8.393834    ( 0.0000,  0.0000,  0.0000)
  82 O      6.244323    7.644690    6.887921    ( 0.0000,  0.0000,  0.0000)
  83 O      1.073450    9.555862    6.887921    ( 0.0000,  0.0000,  0.0000)
  84 O      9.809983    9.553598    9.617219    ( 0.0000,  0.0000,  0.0000)
  85 O      4.635798    7.650079    9.622864    ( 0.0000,  0.0000,  0.0000)
  86 Ti     2.784372    7.649765   10.328423    ( 0.0000,  0.0000,  0.0000)
  87 Ti     7.988582    9.579932   10.395931    ( 0.0000,  0.0000,  0.0000)
  88 Ti     0.516906    9.550953   11.221826    ( 0.0000,  0.0000,  0.0000)
  89 Ti     5.737526    7.656411   11.229927    ( 0.0000,  0.0000,  0.0000)
  90 O      0.928626    7.648492   11.098318    ( 0.0000,  0.0000,  0.0000)
  91 O      6.110265    9.573618   11.088929    ( 0.0000,  0.0000,  0.0000)
  92 O      9.049416    9.590873   12.000440    ( 0.0000,  0.0000,  0.0000)
  93 O      3.847877    7.699059   11.967426    ( 0.0000,  0.0000,  0.0000)
  94 O      7.587177    7.660047   10.517045    ( 0.0000,  0.0000,  0.0000)
  95 O      2.398421    9.558537   10.492467    ( 0.0000,  0.0000,  0.0000)
  96 O      0.922234    9.548237   13.171534    ( 0.0000,  0.0000,  0.0000)
  97 O      6.029265    7.667843   13.212178    ( 0.0000,  0.0000,  0.0000)
  98 Ti     4.127913    7.625181   13.833205    ( 0.0000,  0.0000,  0.0000)
  99 Ti     9.421317    9.649917   14.057715    ( 0.0000,  0.0000,  0.0000)
 100 Ti     1.880299    9.565646   14.774492    ( 0.0000,  0.0000,  0.0000)
 101 Ti     7.192142    7.699337   14.797571    ( 0.0000,  0.0000,  0.0000)
 102 O      2.340379    7.649024   14.801833    ( 0.0000,  0.0000,  0.0000)
 103 O      7.513305    9.634516   14.696909    ( 0.0000,  0.0000,  0.0000)
 104 O      0.192614    9.620392   15.538778    ( 0.0000,  0.0000,  0.0000)
 105 O      5.187022    7.483750   15.554005    ( 0.0000,  0.0000,  0.0000)
 106 O      8.979107    7.674173   14.113160    ( 0.0000,  0.0000,  0.0000)
 107 O      3.828887    9.548308   14.086213    ( 0.0000,  0.0000,  0.0000)
 108 V      5.735441    7.548495   17.212320    ( 0.0000,  0.0000,  0.0000)
 109 V      4.440627    4.721000   17.068288    ( 0.0000,  0.0000,  0.0000)
 110 O      2.660229    9.742801   16.909506    ( 0.0000,  0.0000,  0.0000)
 111 O      7.375601    7.855313   16.756160    ( 0.0000,  0.0000,  0.0000)
 112 O      4.069283    3.481196   18.046617    ( 0.0000,  0.0000,  0.0000)
 113 O      5.487372    5.885151   17.911953    ( 0.0000,  0.0000,  0.0000)
 114 O      4.980099    8.739697   18.026276    ( 0.0000,  0.0000,  0.0000)
 115 O      2.635487    1.620231   16.842304    ( 0.0000,  0.0000,  0.0000)
 116 O      2.994590    5.519465   16.588940    ( 0.0000,  0.0000,  0.0000)
 117 H      1.959963    9.488955   17.540394    ( 0.0000,  0.0000,  0.0000)
 118 H      3.036692    0.739881   16.986548    ( 0.0000,  0.0000,  0.0000)
 119 H      3.516816    9.372481   17.279034    ( 0.0000,  0.0000,  0.0000)
 120 H      3.163468    2.291105   17.375011    ( 0.0000,  0.0000,  0.0000)

Unit cell:
           periodic     x           y           z      points  spacing
  1. axis:    yes   10.341746    0.000000    0.000000    54     0.1915
  2. axis:    yes   -0.000000   11.467000    0.000000    60     0.1911
  3. axis:    no     0.000000    0.000000   23.497201   125     0.1880

  Lengths:  10.341746  11.467000  23.497201
  Angles:   90.000000  90.000000  90.000000

Effective grid spacing dv^(1/3) = 0.1902

                     log10-error:    total        iterations:
           time      wfs    density  energy       fermi  poisson
iter:   1  20:57:07  -5.71   +inf  -986.162403    1             
iter:   2  20:58:03  -6.89  -4.63  -986.162373    1             
iter:   3  20:59:00  -5.54  -4.67  -986.162381    1             
iter:   4  20:59:57  -6.42  -4.85  -986.162326    1             
iter:   5  21:00:53  -7.20  -5.08  -986.162327    1             
iter:   6  21:01:50  -7.29  -5.09  -986.162323    1             
iter:   7  21:02:47  -8.17  -5.38  -986.162323    1             

Converged after 7 iterations.

Dipole moment: (-15.632406, -25.254371, -0.718023) |e|*Ang

Energy contributions relative to reference atoms: (reference = -1048982.797703)

Kinetic:       +692.688451
Potential:     -889.810428
External:        +0.000000
XC:            -796.928779
Entropy (-ST):   -0.000490
Local:           +7.888678
--------------------------
Free energy:   -986.162568
Extrapolated:  -986.162323

Fermi level: -0.54298

Showing only first 2 kpts
 Kpt  Band  Eigenvalues  Occupancy
  0   466     -1.61418    0.22222
  0   467     -1.61295    0.22222
  0   468      0.30573    0.00005
  0   469      0.47824    0.00001

  1   466     -1.63252    0.44444
  1   467     -1.60084    0.44443
  1   468      0.50037    0.00001
  1   469      0.61555    0.00000



Forces in eV/Ang:
  0 O    -1.82791    0.00448    1.55013
  1 O    -1.89812    0.00381    1.53912
  2 Ti    3.84168    0.00000    2.00581
  3 Ti    3.88875   -0.02150    2.03559
  4 Ti   -1.97367   -0.03544   -1.61904
  5 Ti   -1.88123   -0.01055   -1.89553
  6 O     0.89534   -0.00124   -0.17993
  7 O     0.84032    0.08554   -0.16538
  8 O    -0.60459    0.03953   -0.60730
  9 O    -0.68353    0.00503   -0.61189
 10 O    -0.29211    0.00257   -0.87345
 11 O    -0.23050    0.10275   -0.91546
 12 O    -0.00313    0.00026   -0.00090
 13 O     0.00074    0.00106   -0.00297
 14 Ti   -0.00004   -0.00103    0.00071
 15 Ti   -0.00039    0.00088    0.00117
 16 Ti   -0.00055    0.00042    0.00151
 17 Ti   -0.00019   -0.00102   -0.00103
 18 O     0.00110   -0.00181   -0.00221
 19 O     0.00062    0.00070   -0.00023
 20 O     0.00259   -0.00051   -0.00492
 21 O     0.00231    0.00047   -0.00175
 22 O    -0.00285   -0.00153    0.00008
 23 O    -0.00106   -0.00058   -0.00205
 24 O    -0.00203   -0.00209    0.00134
 25 O     0.00210    0.00115    0.00141
 26 Ti   -0.00254   -0.00076    0.00267
 27 Ti    0.00000    0.00030    0.00018
 28 Ti    0.00216   -0.00203    0.00164
 29 Ti    0.00121   -0.00058   -0.00050
 30 O     0.00099    0.00190    0.00048
 31 O     0.00158   -0.00270    0.00225
 32 O    -0.00168   -0.00205    0.00254
 33 O    -0.00002    0.00125    0.00244
 34 O    -0.00214    0.00023    0.00176
 35 O    -0.00057   -0.00143    0.00289
 36 O    -1.82343   -0.00046    1.54167
 37 O    -1.94066    0.00977    1.59205
 38 Ti    3.60036   -0.05574    1.76850
 39 Ti    3.90560    0.01680    2.05309
 40 Ti   -1.98665    0.00036   -1.44615
 41 Ti   -1.57766   -0.01333   -1.89711
 42 O     0.95420    0.01360   -0.19716
 43 O     0.81662    0.01440   -0.19612
 44 O    -0.64103    0.04052   -0.59501
 45 O    -0.69616    0.00388   -0.52221
 46 O    -0.34098    0.00356   -0.89477
 47 O    -0.19999   -0.00277   -0.89814
 48 O    -0.00169   -0.00111   -0.00122
 49 O    -0.00117   -0.00126   -0.00225
 50 Ti    0.00105    0.00057    0.00113
 51 Ti   -0.00064    0.00051    0.00029
 52 Ti    0.00043   -0.00047    0.00155
 53 Ti   -0.00060    0.00023    0.00057
 54 O    -0.00007   -0.00010   -0.00197
 55 O     0.00075   -0.00240   -0.00046
 56 O     0.00107   -0.00093   -0.00284
 57 O     0.00032   -0.00318   -0.00318
 58 O     0.00158   -0.00079   -0.00029
 59 O    -0.00139   -0.00148    0.00020
 60 O    -0.00363   -0.00099    0.00011
 61 O    -0.00195   -0.00057    0.00126
 62 Ti    0.00215   -0.00114    0.00092
 63 Ti   -0.00006   -0.00041   -0.00086
 64 Ti   -0.00016    0.00233    0.00233
 65 Ti   -0.00004    0.00151    0.00165
 66 O     0.00454   -0.00529   -0.00014
 67 O     0.00056   -0.00479    0.00143
 68 O    -0.00101   -0.00130   -0.00145
 69 O     0.00074   -0.00304   -0.00382
 70 O     0.00039   -0.00213    0.00148
 71 O    -0.00110    0.00128    0.00180
 72 O    -1.82482   -0.00545    1.55464
 73 O    -1.92489   -0.00457    1.58587
 74 Ti    3.62492    0.05479    1.77991
 75 Ti    3.87124    0.01549    2.04350
 76 Ti   -1.98428    0.02396   -1.66263
 77 Ti   -1.51157    0.02280   -1.56530
 78 O     0.95254   -0.00276   -0.20436
 79 O     0.84072   -0.03981   -0.17600
 80 O    -0.60050    0.01062   -0.58533
 81 O    -0.69263   -0.00890   -0.55640
 82 O    -0.33963   -0.00645   -0.87942
 83 O    -0.23227   -0.09898   -0.91769
 84 O    -0.00086   -0.00100   -0.00335
 85 O    -0.00006   -0.00053   -0.00255
 86 Ti    0.00014   -0.00071    0.00167
 87 Ti   -0.00066    0.00124    0.00008
 88 Ti    0.00048   -0.00011    0.00030
 89 Ti   -0.00033   -0.00045   -0.00016
 90 O     0.00223   -0.00234   -0.00159
 91 O     0.00184    0.00001   -0.00117
 92 O     0.00061   -0.00182   -0.00066
 93 O     0.00062   -0.00232   -0.00276
 94 O    -0.00066   -0.00316    0.00025
 95 O    -0.00083    0.00026    0.00011
 96 O    -0.00020   -0.00254   -0.00365
 97 O     0.00008   -0.00064   -0.00100
 98 Ti   -0.00089   -0.00159    0.00054
 99 Ti    0.00036   -0.00058    0.00141
100 Ti   -0.00284   -0.00174    0.00397
101 Ti   -0.00090   -0.00106    0.00107
102 O     0.00057    0.00053   -0.00022
103 O     0.00370   -0.00347   -0.00225
104 O     0.00456   -0.00260    0.00142
105 O    -0.00044   -0.00415   -0.00674
106 O     0.00039   -0.00003   -0.00021
107 O     0.00047    0.00393   -0.00157
108 V     0.00006   -0.00029    0.00242
109 V    -0.00169   -0.00506    0.00657
110 O     0.00170   -0.00138   -0.00516
111 O     0.00335   -0.00264   -0.00386
112 O    -0.00129    0.00573   -0.00604
113 O     0.00215   -0.00018    0.00001
114 O    -0.00332   -0.00072    0.00143
115 O    -0.00201    0.00221   -0.00023
116 O    -0.00201    0.00071   -0.00108
117 H    -0.00062   -0.00312    0.00554
118 H     0.00010    0.00021    0.00309
119 H    -0.00584    0.00071    0.00250
120 H    -0.00069   -0.00379   -0.00023

Timing:                                      incl.     excl.
-------------------------------------------------------------------
Density initialized from wave functions:   229.592   229.590   0.4% |
 Symmetrize density:                         0.002     0.002   0.0% |
Forces:                                   1569.708  1569.708   2.4% ||
Hamiltonian:                                87.711     1.581   0.0% |
 Atomic:                                    21.597     0.119   0.0% |
  XC Correction:                            21.478    21.478   0.0% |
 Calculate atomic Hamiltonians:             41.535    41.535   0.1% |
 Communicate:                                9.797     9.797   0.0% |
 Initialize Hamiltonian:                     0.000     0.000   0.0% |
 Poisson:                                    0.091     0.091   0.0% |
 XC 3D grid:                                13.109    13.109   0.0% |
LCAO initialization:                       194.595     1.891   0.0% |
 LCAO eigensolver:                          68.655     0.093   0.0% |
  Calculate projections:                     0.000     0.000   0.0% |
  DenseAtomicCorrection:                     0.001     0.001   0.0% |
  Distribute overlap matrix:                 5.245     5.245   0.0% |
  Orbital Layouts:                          56.803    56.803   0.1% |
  Potential matrix:                          0.036     0.036   0.0% |
  Sum over cells:                            6.477     6.477   0.0% |
 LCAO to grid:                             118.284   118.284   0.2% |
 Set positions (LCAO WFS):                   5.765     4.798   0.0% |
  Basic WFS set positions:                   0.003     0.003   0.0% |
  Basis functions set positions:             0.001     0.001   0.0% |
  P tci:                                     0.007     0.007   0.0% |
  ST tci:                                    0.645     0.645   0.0% |
  mktci:                                     0.312     0.312   0.0% |
PWDescriptor:                                0.180     0.180   0.0% |
Redistribute:                                0.206     0.206   0.0% |
SCF-cycle:                               62977.557     1.554   0.0% |
 Davidson:                               59850.462 14399.187  22.0% |--------|
  Apply H:                                8518.146  8187.293  12.5% |----|
   HMM T:                                  330.853   330.853   0.5% |
  Subspace diag:                          6613.488     0.749   0.0% |
   calc_h_matrix:                         3854.139  1023.378   1.6% ||
    Apply H:                              2830.761  2712.156   4.1% |-|
     HMM T:                                118.605   118.605   0.2% |
   diagonalize:                            838.742   838.742   1.3% ||
   rotate_psi:                            1919.858  1919.858   2.9% ||
  calc. matrices:                        13325.988  7718.974  11.8% |----|
   Apply H:                               5607.014  5401.649   8.2% |--|
    HMM T:                                 205.365   205.365   0.3% |
  diagonalize:                           12921.232 12921.232  19.7% |-------|
  rotate_psi:                             4072.422  4072.422   6.2% |-|
 Density:                                 1840.953     0.027   0.0% |
  Atomic density matrices:                  12.450    12.450   0.0% |
  Mix:                                     380.777   380.777   0.6% |
  Multipole moments:                         0.384     0.384   0.0% |
  Pseudo density:                         1447.314  1447.293   2.2% ||
   Symmetrize density:                       0.021     0.021   0.0% |
 Hamiltonian:                              693.388    12.580   0.0% |
  Atomic:                                  170.563     1.070   0.0% |
   XC Correction:                          169.492   169.492   0.3% |
  Calculate atomic Hamiltonians:           328.511   328.511   0.5% |
  Communicate:                              77.526    77.526   0.1% |
  Poisson:                                   0.659     0.659   0.0% |
  XC 3D grid:                              103.549   103.549   0.2% |
 Orthonormalize:                           591.199     0.139   0.0% |
  calc_s_matrix:                            56.443    56.443   0.1% |
  inverse-cholesky:                         49.549    49.549   0.1% |
  projections:                             378.717   378.717   0.6% |
  rotate_psi_s:                            106.351   106.351   0.2% |
Set symmetry:                                0.001     0.001   0.0% |
Other:                                     432.898   432.898   0.7% |
-------------------------------------------------------------------
Total:                                             65492.448 100.0%

Memory usage: 1.38 GiB
Date: Sat May 25 21:02:59 2019
