['#377eb8', '#ffff33', '#984ea3', '#a65628', '#999999', '#FF0000', '#ff7f00', '#4daf4a']

  ___ ___ ___ _ _ _  
 |   |   |_  | | | | 
 | | | | | . | | | | 
 |__ |  _|___|_____|  1.5.1
 |___|_|             

User:   siva@s81n11.grendel.cscaa.dk
Date:   Fri Feb 28 11:08:35 2020
Arch:   x86_64
Pid:    29432
Python: 3.6.3
gpaw:   /home/siva/gpaw-1.5.1/gpaw
_gpaw:  /home/siva/gpaw-1.5.1/build/lib.linux-x86_64-3.6/
        _gpaw.cpython-36m-x86_64-linux-gnu.so
ase:    /home/siva/env1.5/lib/python3.6/site-packages/ase (version 3.17.0)
numpy:  /home/siva/env1.5/lib/python3.6/site-packages/numpy (version 1.16.0)
scipy:  /home/siva/env1.5/lib/python3.6/site-packages/scipy (version 1.2.0)
units:  Angstrom and eV
cores:  1

Input parameters:
  basis: dzp
  kpts: [2 2 1]
  mode: {ecut: 500.0,
         gammacentered: False,
         name: pw}
  spinpol: True
  symmetry: {point_group: False}
  xc: PBE

[-2.6446128589742504, -2.525560045377788, -2.4065072317813256, -2.2874544181848635, -2.168401604588401, -2.049348790991939, -1.9302959773954766, -1.811243163799014, -1.692190350202552, -1.5731375366060898, -1.4540847230096274, -1.335031909413165, -1.215979095816703, -1.0969262822202404, -0.9778734686237782, -0.858820655027316, -0.7397678414308536, -0.6207150278343914, -0.5016622142379291, -0.3826094006414668, -0.2635565870450045, -0.14450377344854215, -0.025450959852079902, 0.09360185374438235, 0.2126546673408446, 0.33170748093730695, 0.4507602945337693, 0.5698131081302314, 0.6888659217266938, 0.8079187353231562, 0.9269715489196185]
0.0
-4.228179134242799
-8.222445977342442
-11.691274797583972
-13.618859668972185
-15.713886005601097
-16.943386683601517
-18.218929335924585
0.0
0.0
0.0
0.0
0.0
0.0
0.0
0.0
0.0
0.0
0.0
0.0
0.0
0.0
0.0
0.0
0.0
0.0
0.0
0.0
0.0
0.0
0.0
0.0
0.0
0.0
0.0
0.0
0.0
0.0
0.0
[0. 0. 0. 0. 0. 0. 0. 0. 0. 0. 0. 0. 0. 0. 0. 0. 0. 0. 0. 0. 0. 0. 0. 0.
 0. 0. 0. 0. 0. 0. 0.]
1.0610465837057017
0.8229409565127774
0.5848353293198523
0.346729702126928
0.10862407493400283
-0.12948155225892144
-0.3675871794518457
-0.6056928066447709
-0.8437984338376951
-1.0819040610306194
-1.3200096882235441
-1.5581153154164689
-1.7962209426093931
-2.0343265698023183
-2.2724321969952426
-2.510537824188167
-2.748643451381092
-2.9867490785740163
-3.2248547057669406
-3.4629603329598653
-3.70106596015279
-3.9391715873457147
-4.177277214538639
-4.415382841731564
-4.653488468924488
-4.891594096117413
-5.129699723310337
-5.367805350503262
-5.605910977696187
-5.844016604889111
-6.082122232082036
[ 1.06104658  0.82294096  0.58483533  0.3467297   0.10862407 -0.12948155
 -0.36758718 -0.60569281 -0.84379843 -1.08190406 -1.32000969 -1.55811532
 -1.79622094 -2.03432657 -2.2724322  -2.51053782 -2.74864345 -2.98674908
 -3.22485471 -3.46296033 -3.70106596 -3.93917159 -4.17727721 -4.41538284
 -4.65348847 -4.8915941  -5.12969972 -5.36780535 -5.60591098 -5.8440166
 -6.08212223]
2.3560054585545593
1.8797942041687108
1.4035829497828605
0.9273716953970119
0.4511604410111616
-0.025050813374686953
-0.5012620677605355
-0.9774733221463858
-1.4536845765322344
-1.929895830918083
-2.4061070853039324
-2.882318339689782
-3.3585295940756303
-3.8347408484614807
-4.310952102847329
-4.787163357233178
-5.263374611619028
-5.739585866004877
-6.215797120390725
-6.692008374776575
-7.168219629162424
-7.6444308835482735
-8.120642137934123
-8.596853392319971
-9.07306464670582
-9.54927590109167
-10.025487155477519
-10.501698409863367
-10.977909664249218
-11.454120918635066
-11.930332173020917
[  2.35600546   1.8797942    1.40358295   0.9273717    0.45116044
  -0.02505081  -0.50126207  -0.97747332  -1.45368458  -1.92989583
  -2.40610709  -2.88231834  -3.35852959  -3.83474085  -4.3109521
  -4.78716336  -5.26337461  -5.73958587  -6.21579712  -6.69200837
  -7.16821963  -7.64443088  -8.12064214  -8.59685339  -9.07306465
  -9.5492759  -10.02548716 -10.50169841 -10.97790966 -11.45412092
 -11.93033217]
4.17640235626153
3.462085474682757
2.747768593103981
2.0334517115252098
1.3191348299464334
0.6048179483676606
-0.10949893321111226
-0.8238158147898886
-1.5381326963686597
-2.2524495779474343
-2.966766459526207
-3.6810833411049817
-4.3954002226837545
-5.10971710426253
-5.824033985841303
-6.5383508674200765
-7.25266774899885
-7.966984630577624
-8.681301512156399
-9.395618393735171
-10.109935275313944
-10.824252156892719
-11.538569038471493
-12.252885920050266
-12.967202801629039
-13.681519683207814
-14.395836564786588
-15.110153446365361
-15.824470327944134
-16.53878720952291
-17.253104091101683
[  4.17640236   3.46208547   2.74776859   2.03345171   1.31913483
   0.60481795  -0.10949893  -0.82381581  -1.5381327   -2.25244958
  -2.96676646  -3.68108334  -4.39540022  -5.1097171   -5.82403399
  -6.53835087  -7.25266775  -7.96698463  -8.68130151  -9.39561839
 -10.10993528 -10.82425216 -11.53856904 -12.25288592 -12.9672028
 -13.68151968 -14.39583656 -15.11015345 -15.82447033 -16.53878721
 -17.25310409]
7.538043202821818
6.585620694050121
5.63319818527842
4.680775676506723
3.7283531677350226
2.7759306589633255
1.8235081501916284
0.8710856414199277
-0.08133686735176937
-1.0337593761234665
-1.9861818848951653
-2.938604393666864
-3.8910269024385613
-4.843449411210262
-5.795871919981959
-6.748294428753657
-7.700716937525356
-8.653139446297054
-9.605561955068751
-10.55798446384045
-11.510406972612149
-12.462829481383848
-13.415251990155546
-14.367674498927244
-15.32009700769894
-16.27251951647064
-17.22494202524234
-18.177364534014036
-19.129787042785736
-20.082209551557433
-21.034632060329134
[  7.5380432    6.58562069   5.63319819   4.68077568   3.72835317
   2.77593066   1.82350815   0.87108564  -0.08133687  -1.03375938
  -1.98618188  -2.93860439  -3.8910269   -4.84344941  -5.79587192
  -6.74829443  -7.70071694  -8.65313945  -9.60556196 -10.55798446
 -11.51040697 -12.46282948 -13.41525199 -14.3676745  -15.32009701
 -16.27251952 -17.22494203 -18.17736453 -19.12978704 -20.08220955
 -21.03463206]
10.732242584141407
9.541714448176783
8.35118631221216
7.160658176247537
5.9701300402829105
4.779601904318291
3.5890737683536713
2.3985456323890446
1.2080174964244215
0.017489360459801873
-1.173038775504823
-2.363566911469446
-3.5540950474340676
-4.744623183398694
-5.935151319363314
-7.125679455327937
-8.31620759129256
-9.506735727257183
-10.697263863221806
-11.88779199918643
-13.078320135151053
-14.268848271115676
-15.459376407080297
-16.64990454304492
-17.84043267900954
-19.030960814974165
-20.22148895093879
-21.41201708690341
-22.602545222868034
-23.793073358832658
-24.983601494797284
[ 1.07322426e+01  9.54171445e+00  8.35118631e+00  7.16065818e+00
  5.97013004e+00  4.77960190e+00  3.58907377e+00  2.39854563e+00
  1.20801750e+00  1.74893605e-02 -1.17303878e+00 -2.36356691e+00
 -3.55409505e+00 -4.74462318e+00 -5.93515132e+00 -7.12567946e+00
 -8.31620759e+00 -9.50673573e+00 -1.06972639e+01 -1.18877920e+01
 -1.30783201e+01 -1.42688483e+01 -1.54593764e+01 -1.66499045e+01
 -1.78404327e+01 -1.90309608e+01 -2.02214890e+01 -2.14120171e+01
 -2.26025452e+01 -2.37930734e+01 -2.49836015e+01]
14.791967624089487
13.363333860931942
11.934700097774389
10.506066334616847
9.077432571459294
7.648798808301748
6.220165045144203
4.79153128198665
3.362897518829108
1.9342637556715587
0.5056299925140131
-0.9230037706435361
-2.3516375338010818
-3.7802712969586327
-5.208905060116178
-6.637538823273726
-8.066172586431273
-9.49480634958882
-10.923440112746368
-12.352073875903915
-13.780707639061463
-15.20934140221901
-16.63797516537656
-18.066608928534105
-19.49524269169165
-20.9238764548492
-22.35251021800675
-23.781143981164295
-25.20977774432184
-26.63841150747939
-28.06704527063694
[ 14.79196762  13.36333386  11.9347001   10.50606633   9.07743257
   7.64879881   6.22016505   4.79153128   3.36289752   1.93426376
   0.50562999  -0.92300377  -2.35163753  -3.7802713   -5.20890506
  -6.63753882  -8.06617259  -9.49480635 -10.92344011 -12.35207388
 -13.78070764 -15.2093414  -16.63797517 -18.06660893 -19.49524269
 -20.92387645 -22.35251022 -23.78114398 -25.20977774 -26.63841151
 -28.06704527]
18.805650689714923
17.13891129936445
15.472171909013973
13.805432518663501
12.13869312831303
10.471953737962558
8.805214347612086
7.138474957261611
5.471735566911143
3.804996176560671
2.1382567862101993
0.47151739585972763
-1.195221994490744
-2.8619613848412193
-4.528700775191691
-6.195440165542161
-7.862179555892634
-9.528918946243106
-11.195658336593578
-12.86239772694405
-14.529137117294521
-16.195876507644996
-17.862615897995468
-19.52935528834594
-21.19609467869641
-22.862834069046883
-24.529573459397355
-26.196312849747827
-27.8630522400983
-29.52979163044877
-31.196531020799245
[ 18.80565069  17.1389113   15.47217191  13.80543252  12.13869313
  10.47195374   8.80521435   7.13847496   5.47173557   3.80499618
   2.13825679   0.4715174   -1.19522199  -2.86196138  -4.52870078
  -6.19544017  -7.86217956  -9.52891895 -11.19565834 -12.86239773
 -14.52913712 -16.19587651 -17.8626159  -19.52935529 -21.19609468
 -22.86283407 -24.52957346 -26.19631285 -27.86305224 -29.52979163
 -31.19653102]
[-2.5, 0.0]
mu values in range of tem and pressure
581.9397993311037 1e-24 -2.214349768770689
581.9397993311037 1.5156607589006075e-24 -2.2039227765618734
585.61872909699 1e-24 -2.2292340814766947
585.61872909699 1.5156607589006075e-24 -2.2187411715010414
585.61872909699 2.2972275360711464e-24 -2.208248261525389
589.2976588628762 1e-24 -2.2441221864150727
589.2976588628762 1.5156607589006075e-24 -2.2335633586725825
589.2976588628762 2.2972275360711464e-24 -2.2230045309300923
589.2976588628762 3.4818176306889665e-24 -2.2124457031876026
589.2976588628762 5.277254352483554e-24 -2.2018868754451124
592.9765886287626 1e-24 -2.259014063979749
592.9765886287626 1.5156607589006075e-24 -2.2483893184704216
592.9765886287626 2.2972275360711464e-24 -2.237764572961094
592.9765886287626 3.4818176306889665e-24 -2.227139827451767
592.9765886287626 5.277254352483554e-24 -2.2165150819424393
592.9765886287626 7.998527336796691e-24 -2.205890336433112
596.6555183946489 1e-24 -2.273909694794119
596.6555183946489 1.5156607589006075e-24 -2.263219031517954
596.6555183946489 2.2972275360711464e-24 -2.2525283682417894
596.6555183946489 3.4818176306889665e-24 -2.241837704965625
596.6555183946489 5.277254352483554e-24 -2.23114704168946
596.6555183946489 7.998527336796691e-24 -2.220456378413295
596.6555183946489 1.2123054013376528e-23 -2.2097657151371304
600.3344481605352 1e-24 -2.288809059706332
600.3344481605352 1.5156607589006075e-24 -2.27805247866333
600.3344481605352 2.2972275360711464e-24 -2.267295897620328
600.3344481605352 3.4818176306889665e-24 -2.2565393165773258
600.3344481605352 5.277254352483554e-24 -2.2457827355343234
600.3344481605352 7.998527336796691e-24 -2.2350261544913215
600.3344481605352 1.2123054013376528e-23 -2.2242695734483195
600.3344481605352 1.8374437246107323e-23 -2.2135129924053176
600.3344481605352 2.7849413500806386e-23 -2.2027564113623157
604.0133779264214 1e-24 -2.303712139784712
604.0133779264214 1.5156607589006075e-24 -2.2928896409748725
604.0133779264214 2.2972275360711464e-24 -2.282067142165033
604.0133779264214 3.4818176306889665e-24 -2.271244643355194
604.0133779264214 5.277254352483554e-24 -2.260422144545354
604.0133779264214 7.998527336796691e-24 -2.2495996457355147
604.0133779264214 1.2123054013376528e-23 -2.238777146925676
604.0133779264214 1.8374437246107323e-23 -2.227954648115836
604.0133779264214 2.7849413500806386e-23 -2.2171321493059972
604.0133779264214 4.221026320156903e-23 -2.2063096504961575
607.6923076923077 1e-24 -2.318618916313305
607.6923076923077 1.5156607589006075e-24 -2.307730499736628
607.6923076923077 2.2972275360711464e-24 -2.2968420831599516
607.6923076923077 3.4818176306889665e-24 -2.285953666583275
607.6923076923077 5.277254352483554e-24 -2.2750652500065978
607.6923076923077 7.998527336796691e-24 -2.2641768334299215
607.6923076923077 1.2123054013376528e-23 -2.2532884168532448
607.6923076923077 1.8374437246107323e-23 -2.242400000276568
607.6923076923077 2.7849413500806386e-23 -2.2315115836998913
607.6923076923077 4.221026320156903e-23 -2.2206231671232146
607.6923076923077 6.39764395574845e-23 -2.2097347505465375
611.371237458194 1e-24 -2.333529370787554
611.371237458194 1.5156607589006075e-24 -2.32257503644404
611.371237458194 2.2972275360711464e-24 -2.311620702100526
611.371237458194 3.4818176306889665e-24 -2.300666367757012
611.371237458194 5.277254352483554e-24 -2.2897120334134975
611.371237458194 7.998527336796691e-24 -2.278757699069984
611.371237458194 1.2123054013376528e-23 -2.2678033647264697
611.371237458194 1.8374437246107323e-23 -2.2568490303829556
611.371237458194 2.7849413500806386e-23 -2.245894696039442
611.371237458194 4.221026320156903e-23 -2.234940361695928
611.371237458194 6.39764395574845e-23 -2.2239860273524137
611.371237458194 9.6966578931455e-23 -2.2130316930088996
611.371237458194 1.4696843861124476e-22 -2.2020773586653855
615.0501672240803 1e-24 -2.348443484910101
615.0501672240803 1.5156607589006075e-24 -2.3374232327997495
615.0501672240803 2.2972275360711464e-24 -2.326402980689398
615.0501672240803 3.4818176306889665e-24 -2.3153827285790465
615.0501672240803 5.277254352483554e-24 -2.304362476468695
615.0501672240803 7.998527336796691e-24 -2.293342224358344
615.0501672240803 1.2123054013376528e-23 -2.2823219722479924
615.0501672240803 1.8374437246107323e-23 -2.2713017201376413
615.0501672240803 2.7849413500806386e-23 -2.26028146802729
615.0501672240803 4.221026320156903e-23 -2.2492612159169383
615.0501672240803 6.39764395574845e-23 -2.2382409638065868
615.0501672240803 9.6966578931455e-23 -2.2272207116962357
615.0501672240803 1.4696843861124476e-22 -2.216200459585884
615.0501672240803 2.2275429519995655e-22 -2.2051802074755327
618.7290969899666 1e-24 -2.3633612405866993
618.7290969899666 1.5156607589006075e-24 -2.35227507070951
618.7290969899666 2.2972275360711464e-24 -2.3411889008323215
618.7290969899666 3.4818176306889665e-24 -2.330102730955133
618.7290969899666 5.277254352483554e-24 -2.3190165610779436
618.7290969899666 7.998527336796691e-24 -2.307930391200755
618.7290969899666 1.2123054013376528e-23 -2.2968442213235667
618.7290969899666 1.8374437246107323e-23 -2.285758051446378
618.7290969899666 2.7849413500806386e-23 -2.2746718815691893
618.7290969899666 4.221026320156903e-23 -2.2635857116920004
618.7290969899666 6.39764395574845e-23 -2.252499541814812
618.7290969899666 9.6966578931455e-23 -2.241413371937623
618.7290969899666 1.4696843861124476e-22 -2.230327202060434
618.7290969899666 2.2275429519995655e-22 -2.2192410321832456
618.7290969899666 3.3761994411113333e-22 -2.208154862306057
622.4080267558529 1e-24 -2.378282619922247
622.4080267558529 1.5156607589006075e-24 -2.367130532278221
622.4080267558529 2.2972275360711464e-24 -2.355978444634195
622.4080267558529 3.4818176306889665e-24 -2.344826356990169
622.4080267558529 5.277254352483554e-24 -2.3336742693461425
622.4080267558529 7.998527336796691e-24 -2.3225221817021167
622.4080267558529 1.2123054013376528e-23 -2.311370094058091
622.4080267558529 1.8374437246107323e-23 -2.3002180064140645
622.4080267558529 2.7849413500806386e-23 -2.2890659187700386
622.4080267558529 4.221026320156903e-23 -2.2779138311260128
622.4080267558529 6.39764395574845e-23 -2.2667617434819864
622.4080267558529 9.6966578931455e-23 -2.2556096558379606
622.4080267558529 1.4696843861124476e-22 -2.2444575681939343
622.4080267558529 2.2275429519995655e-22 -2.2333054805499084
622.4080267558529 3.3761994411113333e-22 -2.222153392905882
622.4080267558529 5.11717300711461e-22 -2.2110013052618562
626.0869565217391 1e-24 -2.393207605216929
626.0869565217391 1.5156607589006075e-24 -2.381989599806065
626.0869565217391 2.2972275360711464e-24 -2.370771594395202
626.0869565217391 3.4818176306889665e-24 -2.3595535889843386
626.0869565217391 5.277254352483554e-24 -2.348335583573475
626.0869565217391 7.998527336796691e-24 -2.3371175781626117
626.0869565217391 1.2123054013376528e-23 -2.3258995727517484
626.0869565217391 1.8374437246107323e-23 -2.314681567340885
626.0869565217391 2.7849413500806386e-23 -2.303463561930022
626.0869565217391 4.221026320156903e-23 -2.292245556519158
626.0869565217391 6.39764395574845e-23 -2.2810275511082945
626.0869565217391 9.6966578931455e-23 -2.269809545697431
626.0869565217391 1.4696843861124476e-22 -2.258591540286568
626.0869565217391 2.2275429519995655e-22 -2.2473735348757047
626.0869565217391 3.3761994411113333e-22 -2.2361555294648414
626.0869565217391 5.11717300711461e-22 -2.2249375240539777
626.0869565217391 7.75589832338897e-22 -2.2137195186431144
626.0869565217391 1.1755310738783675e-21 -2.202501513232251
629.7658862876254 1e-24 -2.4081361789624633
629.7658862876254 1.5156607589006075e-24 -2.3968522557847622
629.7658862876254 2.2972275360711464e-24 -2.385568332607062
629.7658862876254 3.4818176306889665e-24 -2.374284409429361
629.7658862876254 5.277254352483554e-24 -2.3630004862516603
629.7658862876254 7.998527336796691e-24 -2.3517165630739596
629.7658862876254 1.2123054013376528e-23 -2.340432639896259
629.7658862876254 1.8374437246107323e-23 -2.3291487167185583
629.7658862876254 2.7849413500806386e-23 -2.317864793540857
629.7658862876254 4.221026320156903e-23 -2.306580870363157
629.7658862876254 6.39764395574845e-23 -2.295296947185456
629.7658862876254 9.6966578931455e-23 -2.284013024007755
629.7658862876254 1.4696843861124476e-22 -2.2727291008300545
629.7658862876254 2.2275429519995655e-22 -2.2614451776523534
629.7658862876254 3.3761994411113333e-22 -2.250161254474653
629.7658862876254 5.11717300711461e-22 -2.238877331296952
629.7658862876254 7.75589832338897e-22 -2.227593408119252
629.7658862876254 1.1755310738783675e-21 -2.216309484941551
629.7658862876254 1.7817063195457326e-21 -2.2050255617638497
633.4448160535118 1e-24 -2.423068323838453
633.4448160535118 1.5156607589006075e-24 -2.411718482893915
633.4448160535118 2.2972275360711464e-24 -2.4003686419493775
633.4448160535118 3.4818176306889665e-24 -2.3890188010048394
633.4448160535118 5.277254352483554e-24 -2.3776689600603005
633.4448160535118 7.998527336796691e-24 -2.366319119115763
633.4448160535118 1.2123054013376528e-23 -2.354969278171225
633.4448160535118 1.8374437246107323e-23 -2.3436194372266868
633.4448160535118 2.7849413500806386e-23 -2.3322695962821487
633.4448160535118 4.221026320156903e-23 -2.3209197553376106
633.4448160535118 6.39764395574845e-23 -2.309569914393072
633.4448160535118 9.6966578931455e-23 -2.2982200734485345
633.4448160535118 1.4696843861124476e-22 -2.286870232503996
633.4448160535118 2.2275429519995655e-22 -2.275520391559458
633.4448160535118 3.3761994411113333e-22 -2.2641705506149203
633.4448160535118 5.11717300711461e-22 -2.2528207096703823
633.4448160535118 7.75589832338897e-22 -2.2414708687258442
633.4448160535118 1.1755310738783675e-21 -2.230121027781306
633.4448160535118 1.7817063195457326e-21 -2.2187711868367677
633.4448160535118 2.700462352420693e-21 -2.2074213458922296
637.123745819398 1e-24 -2.4380040227088386
637.123745819398 1.5156607589006075e-24 -2.426588263997463
637.123745819398 2.2972275360711464e-24 -2.415172505286088
637.123745819398 3.4818176306889665e-24 -2.4037567465747127
637.123745819398 5.277254352483554e-24 -2.392340987863337
637.123745819398 7.998527336796691e-24 -2.380925229151962
637.123745819398 1.2123054013376528e-23 -2.3695094704405864
637.123745819398 1.8374437246107323e-23 -2.358093711729211
637.123745819398 2.7849413500806386e-23 -2.3466779530178354
637.123745819398 4.221026320156903e-23 -2.33526219430646
637.123745819398 6.39764395574845e-23 -2.3238464355950845
637.123745819398 9.6966578931455e-23 -2.312430676883709
637.123745819398 1.4696843861124476e-22 -2.3010149181723336
637.123745819398 2.2275429519995655e-22 -2.289599159460958
637.123745819398 3.3761994411113333e-22 -2.278183400749583
637.123745819398 5.11717300711461e-22 -2.2667676420382077
637.123745819398 7.75589832338897e-22 -2.2553518833268322
637.123745819398 1.1755310738783675e-21 -2.2439361246154568
637.123745819398 1.7817063195457326e-21 -2.2325203659040813
637.123745819398 2.700462352420693e-21 -2.221104607192706
637.123745819398 4.092984818452434e-21 -2.2096888484813304
640.8026755852843 1e-24 -2.4529432586184443
640.8026755852843 1.5156607589006075e-24 -2.4414615821402315
640.8026755852843 2.2972275360711464e-24 -2.429979905662019
640.8026755852843 3.4818176306889665e-24 -2.418498229183806
640.8026755852843 5.277254352483554e-24 -2.4070165527055933
640.8026755852843 7.998527336796691e-24 -2.395534876227381
640.8026755852843 1.2123054013376528e-23 -2.384053199749168
640.8026755852843 1.8374437246107323e-23 -2.372571523270955
640.8026755852843 2.7849413500806386e-23 -2.3610898467927424
640.8026755852843 4.221026320156903e-23 -2.3496081703145295
640.8026755852843 6.39764395574845e-23 -2.3381264938363167
640.8026755852843 9.6966578931455e-23 -2.3266448173581042
640.8026755852843 1.4696843861124476e-22 -2.3151631408798914
640.8026755852843 2.2275429519995655e-22 -2.3036814644016785
640.8026755852843 3.3761994411113333e-22 -2.292199787923466
640.8026755852843 5.11717300711461e-22 -2.2807181114452533
640.8026755852843 7.75589832338897e-22 -2.2692364349670404
640.8026755852843 1.1755310738783675e-21 -2.2577547584888276
640.8026755852843 1.7817063195457326e-21 -2.2462730820106147
640.8026755852843 2.700462352420693e-21 -2.234791405532402
640.8026755852843 4.092984818452434e-21 -2.2233097290541894
640.8026755852843 6.2035764761042814e-21 -2.211828052575977
640.8026755852843 9.402517429670094e-21 -2.200346376097764
644.4816053511706 1e-24 -2.467886014789619
644.4816053511706 1.5156607589006075e-24 -2.4563384205445686
644.4816053511706 2.2972275360711464e-24 -2.444790826299519
644.4816053511706 3.4818176306889665e-24 -2.4332432320544686
644.4816053511706 5.277254352483554e-24 -2.4216956378094183
644.4816053511706 7.998527336796691e-24 -2.4101480435643685
644.4816053511706 1.2123054013376528e-23 -2.3986004493193183
644.4816053511706 1.8374437246107323e-23 -2.387052855074268
644.4816053511706 2.7849413500806386e-23 -2.375505260829218
644.4816053511706 4.221026320156903e-23 -2.363957666584168
644.4816053511706 6.39764395574845e-23 -2.3524100723391177
644.4816053511706 9.6966578931455e-23 -2.340862478094068
644.4816053511706 1.4696843861124476e-22 -2.3293148838490176
644.4816053511706 2.2275429519995655e-22 -2.317767289603968
644.4816053511706 3.3761994411113333e-22 -2.3062196953589176
644.4816053511706 5.11717300711461e-22 -2.2946721011138678
644.4816053511706 7.75589832338897e-22 -2.2831245068688175
644.4816053511706 1.1755310738783675e-21 -2.2715769126237677
644.4816053511706 1.7817063195457326e-21 -2.260029318378717
644.4816053511706 2.700462352420693e-21 -2.248481724133667
644.4816053511706 4.092984818452434e-21 -2.236934129888617
644.4816053511706 6.2035764761042814e-21 -2.225386535643567
644.4816053511706 9.402517429670094e-21 -2.213838941398517
644.4816053511706 1.4251026703029964e-20 -2.202291347153467
648.1605351170568 1e-24 -2.482832274618967
648.1605351170568 1.5156607589006075e-24 -2.471218762607079
648.1605351170568 2.2972275360711464e-24 -2.4596052505951924
648.1605351170568 3.4818176306889665e-24 -2.4479917385833048
648.1605351170568 5.277254352483554e-24 -2.436378226571417
648.1605351170568 7.998527336796691e-24 -2.4247647145595295
648.1605351170568 1.2123054013376528e-23 -2.4131512025476423
648.1605351170568 1.8374437246107323e-23 -2.401537690535755
648.1605351170568 2.7849413500806386e-23 -2.3899241785238674
648.1605351170568 4.221026320156903e-23 -2.3783106665119798
648.1605351170568 6.39764395574845e-23 -2.366697154500092
648.1605351170568 9.6966578931455e-23 -2.3550836424882053
648.1605351170568 1.4696843861124476e-22 -2.3434701304763177
648.1605351170568 2.2275429519995655e-22 -2.33185661846443
648.1605351170568 3.3761994411113333e-22 -2.3202431064525433
648.1605351170568 5.11717300711461e-22 -2.3086295944406556
648.1605351170568 7.75589832338897e-22 -2.297016082428768
648.1605351170568 1.1755310738783675e-21 -2.2854025704168808
648.1605351170568 1.7817063195457326e-21 -2.273789058404993
648.1605351170568 2.700462352420693e-21 -2.262175546393106
648.1605351170568 4.092984818452434e-21 -2.2505620343812183
648.1605351170568 6.2035764761042814e-21 -2.2389485223693306
648.1605351170568 9.402517429670094e-21 -2.227335010357444
648.1605351170568 1.4251026703029964e-20 -2.215721498345556
648.1605351170568 2.1599721947827215e-20 -2.2041079863336686
651.8394648829432 1e-24 -2.4977820216741695
651.8394648829432 1.5156607589006075e-24 -2.4861025918954445
651.8394648829432 2.2972275360711464e-24 -2.47442316211672
651.8394648829432 3.4818176306889665e-24 -2.4627437323379953
651.8394648829432 5.277254352483554e-24 -2.45106430255927
651.8394648829432 7.998527336796691e-24 -2.4393848727805456
651.8394648829432 1.2123054013376528e-23 -2.4277054430018206
651.8394648829432 1.8374437246107323e-23 -2.416026013223096
651.8394648829432 2.7849413500806386e-23 -2.4043465834443714
651.8394648829432 4.221026320156903e-23 -2.3926671536656468
651.8394648829432 6.39764395574845e-23 -2.3809877238869217
651.8394648829432 9.6966578931455e-23 -2.369308294108197
651.8394648829432 1.4696843861124476e-22 -2.357628864329472
651.8394648829432 2.2275429519995655e-22 -2.3459494345507474
651.8394648829432 3.3761994411113333e-22 -2.334270004772023
651.8394648829432 5.11717300711461e-22 -2.3225905749932982
651.8394648829432 7.75589832338897e-22 -2.3109111452145736
651.8394648829432 1.1755310738783675e-21 -2.2992317154358486
651.8394648829432 1.7817063195457326e-21 -2.2875522856571235
651.8394648829432 2.700462352420693e-21 -2.275872855878399
651.8394648829432 4.092984818452434e-21 -2.2641934260996743
651.8394648829432 6.2035764761042814e-21 -2.2525139963209497
651.8394648829432 9.402517429670094e-21 -2.240834566542225
651.8394648829432 1.4251026703029964e-20 -2.2291551367635
651.8394648829432 2.1599721947827215e-20 -2.217475706984775
651.8394648829432 3.2737850959485906e-20 -2.2057962772060504
655.5183946488295 1e-24 -2.5127352396908837
655.5183946488295 1.5156607589006075e-24 -2.5009898921453217
655.5183946488295 2.2972275360711464e-24 -2.4892445445997597
655.5183946488295 3.4818176306889665e-24 -2.4774991970541977
655.5183946488295 5.277254352483554e-24 -2.4657538495086353
655.5183946488295 7.998527336796691e-24 -2.4540085019630733
655.5183946488295 1.2123054013376528e-23 -2.4422631544175113
655.5183946488295 1.8374437246107323e-23 -2.430517806871949
655.5183946488295 2.7849413500806386e-23 -2.4187724593263873
655.5183946488295 4.221026320156903e-23 -2.407027111780825
655.5183946488295 6.39764395574845e-23 -2.3952817642352624
655.5183946488295 9.6966578931455e-23 -2.383536416689701
655.5183946488295 1.4696843861124476e-22 -2.3717910691441384
655.5183946488295 2.2275429519995655e-22 -2.3600457215985764
655.5183946488295 3.3761994411113333e-22 -2.3483003740530144
655.5183946488295 5.11717300711461e-22 -2.3365550265074524
655.5183946488295 7.75589832338897e-22 -2.3248096789618904
655.5183946488295 1.1755310738783675e-21 -2.313064331416328
655.5183946488295 1.7817063195457326e-21 -2.301318983870766
655.5183946488295 2.700462352420693e-21 -2.289573636325204
655.5183946488295 4.092984818452434e-21 -2.277828288779642
655.5183946488295 6.2035764761042814e-21 -2.26608294123408
655.5183946488295 9.402517429670094e-21 -2.2543375936885175
655.5183946488295 1.4251026703029964e-20 -2.242592246142956
655.5183946488295 2.1599721947827215e-20 -2.2308468985973935
655.5183946488295 3.2737850959485906e-20 -2.219101551051831
655.5183946488295 4.961947603002898e-20 -2.2073562035062695
659.1973244147157 1e-24 -2.5276919125697304
659.1973244147157 1.5156607589006075e-24 -2.515880647257331
659.1973244147157 2.2972275360711464e-24 -2.5040693819449316
659.1973244147157 3.4818176306889665e-24 -2.492258116632532
659.1973244147157 5.277254352483554e-24 -2.4804468513201328
659.1973244147157 7.998527336796691e-24 -2.4686355860077334
659.1973244147157 1.2123054013376528e-23 -2.456824320695334
659.1973244147157 1.8374437246107323e-23 -2.445013055382934
659.1973244147157 2.7849413500806386e-23 -2.433201790070535
659.1973244147157 4.221026320156903e-23 -2.4213905247581358
659.1973244147157 6.39764395574845e-23 -2.409579259445736
659.1973244147157 9.6966578931455e-23 -2.3977679941333365
659.1973244147157 1.4696843861124476e-22 -2.385956728820937
659.1973244147157 2.2275429519995655e-22 -2.3741454635085377
659.1973244147157 3.3761994411113333e-22 -2.3623341981961383
659.1973244147157 5.11717300711461e-22 -2.350522932883739
659.1973244147157 7.75589832338897e-22 -2.3387116675713395
659.1973244147157 1.1755310738783675e-21 -2.32690040225894
659.1973244147157 1.7817063195457326e-21 -2.3150891369465403
659.1973244147157 2.700462352420693e-21 -2.303277871634141
659.1973244147157 4.092984818452434e-21 -2.291466606321742
659.1973244147157 6.2035764761042814e-21 -2.279655341009342
659.1973244147157 9.402517429670094e-21 -2.267844075696943
659.1973244147157 1.4251026703029964e-20 -2.2560328103845437
659.1973244147157 2.1599721947827215e-20 -2.244221545072144
659.1973244147157 3.2737850959485906e-20 -2.2324102797597445
659.1973244147157 4.961947603002898e-20 -2.220599014447345
659.1973244147157 7.520629269592423e-20 -2.2087877491349457
662.876254180602 1e-24 -2.5426520243733557
662.876254180602 1.5156607589006075e-24 -2.530774841294119
662.876254180602 2.2972275360711464e-24 -2.518897658214882
662.876254180602 3.4818176306889665e-24 -2.5070204751356453
662.876254180602 5.277254352483554e-24 -2.4951432920564085
662.876254180602 7.998527336796691e-24 -2.4832661089771717
662.876254180602 1.2123054013376528e-23 -2.471388925897935
662.876254180602 1.8374437246107323e-23 -2.459511742818698
662.876254180602 2.7849413500806386e-23 -2.4476345597394618
662.876254180602 4.221026320156903e-23 -2.435757376660225
662.876254180602 6.39764395574845e-23 -2.4238801935809877
662.876254180602 9.6966578931455e-23 -2.4120030105017514
662.876254180602 1.4696843861124476e-22 -2.400125827422514
662.876254180602 2.2275429519995655e-22 -2.3882486443432773
662.876254180602 3.3761994411113333e-22 -2.376371461264041
662.876254180602 5.11717300711461e-22 -2.364494278184804
662.876254180602 7.75589832338897e-22 -2.3526170951055674
662.876254180602 1.1755310738783675e-21 -2.3407399120263306
662.876254180602 1.7817063195457326e-21 -2.328862728947094
662.876254180602 2.700462352420693e-21 -2.316985545867857
662.876254180602 4.092984818452434e-21 -2.30510836278862
662.876254180602 6.2035764761042814e-21 -2.2932311797093834
662.876254180602 9.402517429670094e-21 -2.2813539966301466
662.876254180602 1.4251026703029964e-20 -2.26947681355091
662.876254180602 2.1599721947827215e-20 -2.257599630471673
662.876254180602 3.2737850959485906e-20 -2.245722447392436
662.876254180602 4.961947603002898e-20 -2.2338452643131994
662.876254180602 7.520629269592423e-20 -2.2219680812339626
662.876254180602 1.1398722666160479e-19 -2.2100908981547263
666.5551839464883 1e-24 -2.557615559323572
666.5551839464883 1.5156607589006075e-24 -2.5456724584774983
666.5551839464883 2.2972275360711464e-24 -2.533729357631424
666.5551839464883 3.4818176306889665e-24 -2.52178625678535
666.5551839464883 5.277254352483554e-24 -2.5098431559392758
666.5551839464883 7.998527336796691e-24 -2.4979000550932016
666.5551839464883 1.2123054013376528e-23 -2.4859569542471274
666.5551839464883 1.8374437246107323e-23 -2.4740138534010536
666.5551839464883 2.7849413500806386e-23 -2.4620707525549794
666.5551839464883 4.221026320156903e-23 -2.4501276517089052
666.5551839464883 6.39764395574845e-23 -2.438184550862831
666.5551839464883 9.6966578931455e-23 -2.426241450016757
666.5551839464883 1.4696843861124476e-22 -2.4142983491706826
666.5551839464883 2.2275429519995655e-22 -2.4023552483246084
666.5551839464883 3.3761994411113333e-22 -2.3904121474785347
666.5551839464883 5.11717300711461e-22 -2.3784690466324605
666.5551839464883 7.75589832338897e-22 -2.3665259457863868
666.5551839464883 1.1755310738783675e-21 -2.3545828449403126
666.5551839464883 1.7817063195457326e-21 -2.342639744094238
666.5551839464883 2.700462352420693e-21 -2.3306966432481637
666.5551839464883 4.092984818452434e-21 -2.31875354240209
666.5551839464883 6.2035764761042814e-21 -2.306810441556016
666.5551839464883 9.402517429670094e-21 -2.294867340709942
666.5551839464883 1.4251026703029964e-20 -2.282924239863868
666.5551839464883 2.1599721947827215e-20 -2.270981139017793
666.5551839464883 3.2737850959485906e-20 -2.259038038171719
666.5551839464883 4.961947603002898e-20 -2.2470949373256452
666.5551839464883 7.520629269592423e-20 -2.235151836479571
666.5551839464883 1.1398722666160479e-19 -2.2232087356334973
666.5551839464883 1.7276596646690347e-19 -2.211265634787423
670.2341137123747 1e-24 -2.5725825017985726
670.2341137123747 1.5156607589006075e-24 -2.560573483185661
670.2341137123747 2.2972275360711464e-24 -2.54856446457275
670.2341137123747 3.4818176306889665e-24 -2.5365554459598383
670.2341137123747 5.277254352483554e-24 -2.5245464273469267
670.2341137123747 7.998527336796691e-24 -2.5125374087340155
670.2341137123747 1.2123054013376528e-23 -2.500528390121104
670.2341137123747 1.8374437246107323e-23 -2.4885193715081924
670.2341137123747 2.7849413500806386e-23 -2.476510352895281
670.2341137123747 4.221026320156903e-23 -2.4645013342823696
670.2341137123747 6.39764395574845e-23 -2.452492315669458
670.2341137123747 9.6966578931455e-23 -2.440483297056547
670.2341137123747 1.4696843861124476e-22 -2.4284742784436353
670.2341137123747 2.2275429519995655e-22 -2.4164652598307237
670.2341137123747 3.3761994411113333e-22 -2.4044562412178125
670.2341137123747 5.11717300711461e-22 -2.392447222604901
670.2341137123747 7.75589832338897e-22 -2.38043820399199
670.2341137123747 1.1755310738783675e-21 -2.368429185379078
670.2341137123747 1.7817063195457326e-21 -2.3564201667661666
670.2341137123747 2.700462352420693e-21 -2.344411148153255
670.2341137123747 4.092984818452434e-21 -2.332402129540344
670.2341137123747 6.2035764761042814e-21 -2.3203931109274323
670.2341137123747 9.402517429670094e-21 -2.3083840923145207
670.2341137123747 1.4251026703029964e-20 -2.2963750737016095
670.2341137123747 2.1599721947827215e-20 -2.2843660550886975
670.2341137123747 3.2737850959485906e-20 -2.2723570364757864
670.2341137123747 4.961947603002898e-20 -2.2603480178628748
670.2341137123747 7.520629269592423e-20 -2.2483389992499636
670.2341137123747 1.1398722666160479e-19 -2.236329980637052
670.2341137123747 1.7276596646690347e-19 -2.2243209620241404
670.2341137123747 2.618545958474238e-19 -2.2123119434112293
670.2341137123747 3.9688273546371497e-19 -2.2003029247983177
673.9130434782609 1e-24 -2.587552836330217
673.9130434782609 1.5156607589006075e-24 -2.575477899950468
673.9130434782609 2.2972275360711464e-24 -2.56340296357072
673.9130434782609 3.4818176306889665e-24 -2.551328027190971
673.9130434782609 5.277254352483554e-24 -2.539253090811222
673.9130434782609 7.998527336796691e-24 -2.527178154431473
673.9130434782609 1.2123054013376528e-23 -2.5151032180517245
673.9130434782609 1.8374437246107323e-23 -2.503028281671976
673.9130434782609 2.7849413500806386e-23 -2.490953345292227
673.9130434782609 4.221026320156903e-23 -2.478878408912478
673.9130434782609 6.39764395574845e-23 -2.466803472532729
673.9130434782609 9.6966578931455e-23 -2.4547285361529805
673.9130434782609 1.4696843861124476e-22 -2.442653599773232
673.9130434782609 2.2275429519995655e-22 -2.430578663393483
673.9130434782609 3.3761994411113333e-22 -2.418503727013734
673.9130434782609 5.11717300711461e-22 -2.4064287906339854
673.9130434782609 7.75589832338897e-22 -2.394353854254237
673.9130434782609 1.1755310738783675e-21 -2.382278917874488
673.9130434782609 1.7817063195457326e-21 -2.370203981494739
673.9130434782609 2.700462352420693e-21 -2.35812904511499
673.9130434782609 4.092984818452434e-21 -2.346054108735242
673.9130434782609 6.2035764761042814e-21 -2.333979172355493
673.9130434782609 9.402517429670094e-21 -2.321904235975744
673.9130434782609 1.4251026703029964e-20 -2.3098292995959953
673.9130434782609 2.1599721947827215e-20 -2.297754363216246
673.9130434782609 3.2737850959485906e-20 -2.2856794268364973
673.9130434782609 4.961947603002898e-20 -2.2736044904567487
673.9130434782609 7.520629269592423e-20 -2.2615295540769997
673.9130434782609 1.1398722666160479e-19 -2.249454617697251
673.9130434782609 1.7276596646690347e-19 -2.2373796813175026
673.9130434782609 2.618545958474238e-19 -2.2253047449377537
673.9130434782609 3.9688273546371497e-19 -2.2132298085580047
673.9130434782609 6.015395880274832e-19 -2.2011548721782557
677.5919732441472 1e-24 -2.602526547601387
677.5919732441472 1.5156607589006075e-24 -2.5903856934548006
677.5919732441472 2.2972275360711464e-24 -2.5782448393082147
677.5919732441472 3.4818176306889665e-24 -2.5661039851616287
677.5919732441472 5.277254352483554e-24 -2.5539631310150424
677.5919732441472 7.998527336796691e-24 -2.5418222768684564
677.5919732441472 1.2123054013376528e-23 -2.52968142272187
677.5919732441472 1.8374437246107323e-23 -2.517540568575284
677.5919732441472 2.7849413500806386e-23 -2.505399714428698
677.5919732441472 4.221026320156903e-23 -2.493258860282112
677.5919732441472 6.39764395574845e-23 -2.4811180061355254
677.5919732441472 9.6966578931455e-23 -2.4689771519889394
677.5919732441472 1.4696843861124476e-22 -2.4568362978423535
677.5919732441472 2.2275429519995655e-22 -2.4446954436957675
677.5919732441472 3.3761994411113333e-22 -2.4325545895491816
677.5919732441472 5.11717300711461e-22 -2.420413735402595
677.5919732441472 7.75589832338897e-22 -2.4082728812560092
677.5919732441472 1.1755310738783675e-21 -2.396132027109423
677.5919732441472 1.7817063195457326e-21 -2.383991172962837
677.5919732441472 2.700462352420693e-21 -2.3718503188162505
677.5919732441472 4.092984818452434e-21 -2.3597094646696646
677.5919732441472 6.2035764761042814e-21 -2.347568610523078
677.5919732441472 9.402517429670094e-21 -2.3354277563764922
677.5919732441472 1.4251026703029964e-20 -2.3232869022299063
677.5919732441472 2.1599721947827215e-20 -2.31114604808332
677.5919732441472 3.2737850959485906e-20 -2.2990051939367335
677.5919732441472 4.961947603002898e-20 -2.2868643397901476
677.5919732441472 7.520629269592423e-20 -2.2747234856435616
677.5919732441472 1.1398722666160479e-19 -2.2625826314969757
677.5919732441472 1.7276596646690347e-19 -2.2504417773503893
677.5919732441472 2.618545958474238e-19 -2.238300923203803
677.5919732441472 3.9688273546371497e-19 -2.226160069057217
677.5919732441472 6.015395880274832e-19 -2.214019214910631
677.5919732441472 9.11729948498494e-19 -2.2018783607640446
681.2709030100335 1e-24 -2.617503620443409
681.2709030100335 1.5156607589006075e-24 -2.605296848529985
681.2709030100335 2.2972275360711464e-24 -2.5930900766165617
681.2709030100335 3.4818176306889665e-24 -2.5808833047031383
681.2709030100335 5.277254352483554e-24 -2.5686765327897145
681.2709030100335 7.998527336796691e-24 -2.556469760876291
681.2709030100335 1.2123054013376528e-23 -2.544262988962868
681.2709030100335 1.8374437246107323e-23 -2.532056217049444
681.2709030100335 2.7849413500806386e-23 -2.519849445136021
681.2709030100335 4.221026320156903e-23 -2.5076426732225974
681.2709030100335 6.39764395574845e-23 -2.4954359013091736
681.2709030100335 9.6966578931455e-23 -2.4832291293957507
681.2709030100335 1.4696843861124476e-22 -2.471022357482327
681.2709030100335 2.2275429519995655e-22 -2.458815585568903
681.2709030100335 3.3761994411113333e-22 -2.44660881365548
681.2709030100335 5.11717300711461e-22 -2.4344020417420564
681.2709030100335 7.75589832338897e-22 -2.4221952698286335
681.2709030100335 1.1755310738783675e-21 -2.4099884979152097
681.2709030100335 1.7817063195457326e-21 -2.397781726001786
681.2709030100335 2.700462352420693e-21 -2.3855749540883626
681.2709030100335 4.092984818452434e-21 -2.3733681821749393
681.2709030100335 6.2035764761042814e-21 -2.3611614102615155
681.2709030100335 9.402517429670094e-21 -2.3489546383480926
681.2709030100335 1.4251026703029964e-20 -2.336747866434669
681.2709030100335 2.1599721947827215e-20 -2.324541094521245
681.2709030100335 3.2737850959485906e-20 -2.3123343226078217
681.2709030100335 4.961947603002898e-20 -2.3001275506943983
681.2709030100335 7.520629269592423e-20 -2.2879207787809746
681.2709030100335 1.1398722666160479e-19 -2.2757140068675517
681.2709030100335 1.7276596646690347e-19 -2.263507234954128
681.2709030100335 2.618545958474238e-19 -2.2513004630407045
681.2709030100335 3.9688273546371497e-19 -2.239093691127281
681.2709030100335 6.015395880274832e-19 -2.2268869192138574
681.2709030100335 9.11729948498494e-19 -2.214680147300434
681.2709030100335 1.381873305653628e-18 -2.2024733753870107
684.9498327759197 1e-24 -2.6324840398335394
684.9498327759197 1.5156607589006075e-24 -2.620211350153278
684.9498327759197 2.2972275360711464e-24 -2.607938660473018
684.9498327759197 3.4818176306889665e-24 -2.5956659707927567
684.9498327759197 5.277254352483554e-24 -2.583393281112496
684.9498327759197 7.998527336796691e-24 -2.5711205914322353
684.9498327759197 1.2123054013376528e-23 -2.5588479017519745
684.9498327759197 1.8374437246107323e-23 -2.546575212071714
684.9498327759197 2.7849413500806386e-23 -2.534302522391453
684.9498327759197 4.221026320156903e-23 -2.5220298327111923
684.9498327759197 6.39764395574845e-23 -2.509757143030931
684.9498327759197 9.6966578931455e-23 -2.4974844533506704
684.9498327759197 1.4696843861124476e-22 -2.4852117636704096
684.9498327759197 2.2275429519995655e-22 -2.4729390739901485
684.9498327759197 3.3761994411113333e-22 -2.460666384309888
684.9498327759197 5.11717300711461e-22 -2.448393694629627
684.9498327759197 7.75589832338897e-22 -2.4361210049493667
684.9498327759197 1.1755310738783675e-21 -2.4238483152691055
684.9498327759197 1.7817063195457326e-21 -2.4115756255888448
684.9498327759197 2.700462352420693e-21 -2.399302935908584
684.9498327759197 4.092984818452434e-21 -2.3870302462283233
684.9498327759197 6.2035764761042814e-21 -2.3747575565480625
684.9498327759197 9.402517429670094e-21 -2.362484866867802
684.9498327759197 1.4251026703029964e-20 -2.350212177187541
684.9498327759197 2.1599721947827215e-20 -2.33793948750728
684.9498327759197 3.2737850959485906e-20 -2.3256667978270187
684.9498327759197 4.961947603002898e-20 -2.3133941081467584
684.9498327759197 7.520629269592423e-20 -2.301121418466497
684.9498327759197 1.1398722666160479e-19 -2.288848728786237
684.9498327759197 1.7276596646690347e-19 -2.2765760391059757
684.9498327759197 2.618545958474238e-19 -2.264303349425715
684.9498327759197 3.9688273546371497e-19 -2.2520306597454542
684.9498327759197 6.015395880274832e-19 -2.2397579700651935
684.9498327759197 9.11729948498494e-19 -2.2274852803849328
684.9498327759197 1.381873305653628e-18 -2.215212590704672
684.9498327759197 2.0944511431514688e-18 -2.2029399010244113
688.628762541806 1e-24 -2.64746779089252
688.628762541806 1.5156607589006075e-24 -2.635129183445422
688.628762541806 2.2972275360711464e-24 -2.622790575998324
688.628762541806 3.4818176306889665e-24 -2.610451968551226
688.628762541806 5.277254352483554e-24 -2.5981133611041276
688.628762541806 7.998527336796691e-24 -2.5857747536570295
688.628762541806 1.2123054013376528e-23 -2.5734361462099313
688.628762541806 1.8374437246107323e-23 -2.561097538762833
688.628762541806 2.7849413500806386e-23 -2.548758931315735
688.628762541806 4.221026320156903e-23 -2.536420323868637
688.628762541806 6.39764395574845e-23 -2.524081716421539
688.628762541806 9.6966578931455e-23 -2.5117431089744406
688.628762541806 1.4696843861124476e-22 -2.4994045015273425
688.628762541806 2.2275429519995655e-22 -2.487065894080244
688.628762541806 3.3761994411113333e-22 -2.4747272866331462
688.628762541806 5.11717300711461e-22 -2.462388679186048
688.628762541806 7.75589832338897e-22 -2.45005007173895
688.628762541806 1.1755310738783675e-21 -2.437711464291852
688.628762541806 1.7817063195457326e-21 -2.4253728568447537
688.628762541806 2.700462352420693e-21 -2.413034249397655
688.628762541806 4.092984818452434e-21 -2.4006956419505574
688.628762541806 6.2035764761042814e-21 -2.3883570345034593
688.628762541806 9.402517429670094e-21 -2.376018427056361
688.628762541806 1.4251026703029964e-20 -2.363679819609263
688.628762541806 2.1599721947827215e-20 -2.351341212162165
688.628762541806 3.2737850959485906e-20 -2.3390026047150663
688.628762541806 4.961947603002898e-20 -2.3266639972679686
688.628762541806 7.520629269592423e-20 -2.31432538982087
688.628762541806 1.1398722666160479e-19 -2.3019867823737723
688.628762541806 1.7276596646690347e-19 -2.289648174926674
688.628762541806 2.618545958474238e-19 -2.277309567479576
688.628762541806 3.9688273546371497e-19 -2.2649709600324774
688.628762541806 6.015395880274832e-19 -2.2526323525853797
688.628762541806 9.11729948498494e-19 -2.240293745138281
688.628762541806 1.381873305653628e-18 -2.2279551376911835
688.628762541806 2.0944511431514688e-18 -2.215616530244085
688.628762541806 3.1744774091092e-18 -2.203277922796987
692.3076923076924 1e-24 -2.662454858882186
692.3076923076924 1.5156607589006075e-24 -2.6500503336682506
692.3076923076924 2.2972275360711464e-24 -2.637645808454315
692.3076923076924 3.4818176306889665e-24 -2.6252412832403795
692.3076923076924 5.277254352483554e-24 -2.612836758026444
692.3076923076924 7.998527336796691e-24 -2.6004322328125085
692.3076923076924 1.2123054013376528e-23 -2.588027707598573
692.3076923076924 1.8374437246107323e-23 -2.5756231823846374
692.3076923076924 2.7849413500806386e-23 -2.563218657170702
692.3076923076924 4.221026320156903e-23 -2.5508141319567663
692.3076923076924 6.39764395574845e-23 -2.538409606742831
692.3076923076924 9.6966578931455e-23 -2.5260050815288952
692.3076923076924 1.4696843861124476e-22 -2.5136005563149597
692.3076923076924 2.2275429519995655e-22 -2.5011960311010246
692.3076923076924 3.3761994411113333e-22 -2.4887915058870895
692.3076923076924 5.11717300711461e-22 -2.476386980673154
692.3076923076924 7.75589832338897e-22 -2.4639824554592185
692.3076923076924 1.1755310738783675e-21 -2.451577930245283
692.3076923076924 1.7817063195457326e-21 -2.4391734050313474
692.3076923076924 2.700462352420693e-21 -2.426768879817412
692.3076923076924 4.092984818452434e-21 -2.4143643546034763
692.3076923076924 6.2035764761042814e-21 -2.401959829389541
692.3076923076924 9.402517429670094e-21 -2.3895553041756052
692.3076923076924 1.4251026703029964e-20 -2.3771507789616697
692.3076923076924 2.1599721947827215e-20 -2.364746253747734
692.3076923076924 3.2737850959485906e-20 -2.3523417285337986
692.3076923076924 4.961947603002898e-20 -2.339937203319863
692.3076923076924 7.520629269592423e-20 -2.3275326781059276
692.3076923076924 1.1398722666160479e-19 -2.3151281528919925
692.3076923076924 1.7276596646690347e-19 -2.302723627678057
692.3076923076924 2.618545958474238e-19 -2.2903191024641214
692.3076923076924 3.9688273546371497e-19 -2.277914577250186
692.3076923076924 6.015395880274832e-19 -2.2655100520362503
692.3076923076924 9.11729948498494e-19 -2.253105526822315
692.3076923076924 1.381873305653628e-18 -2.2407010016083797
692.3076923076924 2.0944511431514688e-18 -2.228296476394444
692.3076923076924 3.1744774091092e-18 -2.2158919511805086
692.3076923076924 4.8114308390032444e-18 -2.203487425966573
695.9866220735786 1e-24 -2.677445229203136
695.9866220735786 1.5156607589006075e-24 -2.6649747862223627
695.9866220735786 2.2972275360711464e-24 -2.6525043432415902
695.9866220735786 3.4818176306889665e-24 -2.6400339002608177
695.9866220735786 5.277254352483554e-24 -2.6275634572800444
695.9866220735786 7.998527336796691e-24 -2.615093014299272
695.9866220735786 1.2123054013376528e-23 -2.602622571318499
695.9866220735786 1.8374437246107323e-23 -2.590152128337726
695.9866220735786 2.7849413500806386e-23 -2.5776816853569535
695.9866220735786 4.221026320156903e-23 -2.56521124237618
695.9866220735786 6.39764395574845e-23 -2.5527407993954077
695.9866220735786 9.6966578931455e-23 -2.5402703564146347
695.9866220735786 1.4696843861124476e-22 -2.527799913433862
695.9866220735786 2.2275429519995655e-22 -2.5153294704530893
695.9866220735786 3.3761994411113333e-22 -2.5028590274723164
695.9866220735786 5.11717300711461e-22 -2.4903885844915434
695.9866220735786 7.75589832338897e-22 -2.477918141510771
695.9866220735786 1.1755310738783675e-21 -2.465447698529998
695.9866220735786 1.7817063195457326e-21 -2.452977255549225
695.9866220735786 2.700462352420693e-21 -2.440506812568452
695.9866220735786 4.092984818452434e-21 -2.428036369587679
695.9866220735786 6.2035764761042814e-21 -2.4155659266069067
695.9866220735786 9.402517429670094e-21 -2.403095483626134
695.9866220735786 1.4251026703029964e-20 -2.390625040645361
695.9866220735786 2.1599721947827215e-20 -2.378154597664588
695.9866220735786 3.2737850959485906e-20 -2.365684154683815
695.9866220735786 4.961947603002898e-20 -2.3532137117030425
695.9866220735786 7.520629269592423e-20 -2.3407432687222696
695.9866220735786 1.1398722666160479e-19 -2.3282728257414966
695.9866220735786 1.7276596646690347e-19 -2.315802382760724
695.9866220735786 2.618545958474238e-19 -2.303331939779951
695.9866220735786 3.9688273546371497e-19 -2.2908614967991783
695.9866220735786 6.015395880274832e-19 -2.278391053818406
695.9866220735786 9.11729948498494e-19 -2.2659206108376324
695.9866220735786 1.381873305653628e-18 -2.25345016785686
695.9866220735786 2.0944511431514688e-18 -2.240979724876087
695.9866220735786 3.1744774091092e-18 -2.228509281895314
695.9866220735786 4.8114308390032444e-18 -2.2160388389145416
695.9866220735786 7.292496916841444e-18 -2.203568395933768
699.6655518394649 1e-24 -2.692438887392463
699.6655518394649 1.5156607589006075e-24 -2.6799025266448533
699.6655518394649 2.2972275360711464e-24 -2.667366165897243
699.6655518394649 3.4818176306889665e-24 -2.6548298051496326
699.6655518394649 5.277254352483554e-24 -2.6422934444020223
699.6655518394649 7.998527336796691e-24 -2.6297570836544124
699.6655518394649 1.2123054013376528e-23 -2.6172207229068025
699.6655518394649 1.8374437246107323e-23 -2.604684362159192
699.6655518394649 2.7849413500806386e-23 -2.592148001411582
699.6655518394649 4.221026320156903e-23 -2.579611640663972
699.6655518394649 6.39764395574845e-23 -2.567075279916361
699.6655518394649 9.6966578931455e-23 -2.5545389191687518
699.6655518394649 1.4696843861124476e-22 -2.5420025584211414
699.6655518394649 2.2275429519995655e-22 -2.529466197673531
699.6655518394649 3.3761994411113333e-22 -2.5169298369259208
699.6655518394649 5.11717300711461e-22 -2.504393476178311
699.6655518394649 7.75589832338897e-22 -2.491857115430701
699.6655518394649 1.1755310738783675e-21 -2.4793207546830907
699.6655518394649 1.7817063195457326e-21 -2.4667843939354803
699.6655518394649 2.700462352420693e-21 -2.45424803318787
699.6655518394649 4.092984818452434e-21 -2.44171167244026
699.6655518394649 6.2035764761042814e-21 -2.42917531169265
699.6655518394649 9.402517429670094e-21 -2.41663895094504
699.6655518394649 1.4251026703029964e-20 -2.4041025901974296
699.6655518394649 2.1599721947827215e-20 -2.3915662294498192
699.6655518394649 3.2737850959485906e-20 -2.379029868702209
699.6655518394649 4.961947603002898e-20 -2.366493507954599
699.6655518394649 7.520629269592423e-20 -2.353957147206989
699.6655518394649 1.1398722666160479e-19 -2.341420786459379
699.6655518394649 1.7276596646690347e-19 -2.3288844257117685
699.6655518394649 2.618545958474238e-19 -2.3163480649641586
699.6655518394649 3.9688273546371497e-19 -2.3038117042165482
699.6655518394649 6.015395880274832e-19 -2.2912753434689384
699.6655518394649 9.11729948498494e-19 -2.278738982721328
699.6655518394649 1.381873305653628e-18 -2.2662026219737177
699.6655518394649 2.0944511431514688e-18 -2.253666261226108
699.6655518394649 3.1744774091092e-18 -2.2411299004784975
699.6655518394649 4.8114308390032444e-18 -2.2285935397308876
699.6655518394649 7.292496916841444e-18 -2.2160571789832773
699.6655518394649 1.1052951411260153e-17 -2.203520818235667
703.3444816053512 1e-24 -2.707435819121537
703.3444816053512 1.5156607589006075e-24 -2.69483354060709
703.3444816053512 2.2972275360711464e-24 -2.6822312620926425
703.3444816053512 3.4818176306889665e-24 -2.669628983578195
703.3444816053512 5.277254352483554e-24 -2.657026705063747
703.3444816053512 7.998527336796691e-24 -2.6444244265492998
703.3444816053512 1.2123054013376528e-23 -2.631822148034852
703.3444816053512 1.8374437246107323e-23 -2.6192198695204043
703.3444816053512 2.7849413500806386e-23 -2.606617591005957
703.3444816053512 4.221026320156903e-23 -2.5940153124915097
703.3444816053512 6.39764395574845e-23 -2.581413033977062
703.3444816053512 9.6966578931455e-23 -2.5688107554626143
703.3444816053512 1.4696843861124476e-22 -2.556208476948167
703.3444816053512 2.2275429519995655e-22 -2.5436061984337197
703.3444816053512 3.3761994411113333e-22 -2.5310039199192724
703.3444816053512 5.11717300711461e-22 -2.5184016414048247
703.3444816053512 7.75589832338897e-22 -2.5057993628903774
703.3444816053512 1.1755310738783675e-21 -2.4931970843759297
703.3444816053512 1.7817063195457326e-21 -2.480594805861482
703.3444816053512 2.700462352420693e-21 -2.4679925273470342
703.3444816053512 4.092984818452434e-21 -2.455390248832587
703.3444816053512 6.2035764761042814e-21 -2.4427879703181397
703.3444816053512 9.402517429670094e-21 -2.4301856918036924
703.3444816053512 1.4251026703029964e-20 -2.4175834132892446
703.3444816053512 2.1599721947827215e-20 -2.404981134774797
703.3444816053512 3.2737850959485906e-20 -2.3923788562603496
703.3444816053512 4.961947603002898e-20 -2.3797765777459023
703.3444816053512 7.520629269592423e-20 -2.3671742992314546
703.3444816053512 1.1398722666160479e-19 -2.3545720207170073
703.3444816053512 1.7276596646690347e-19 -2.3419697422025596
703.3444816053512 2.618545958474238e-19 -2.3293674636881123
703.3444816053512 3.9688273546371497e-19 -2.3167651851736646
703.3444816053512 6.015395880274832e-19 -2.304162906659217
703.3444816053512 9.11729948498494e-19 -2.2915606281447696
703.3444816053512 1.381873305653628e-18 -2.2789583496303223
703.3444816053512 2.0944511431514688e-18 -2.266356071115875
703.3444816053512 3.1744774091092e-18 -2.253753792601427
703.3444816053512 4.8114308390032444e-18 -2.2411515140869795
703.3444816053512 7.292496916841444e-18 -2.2285492355725323
703.3444816053512 1.1052951411260153e-17 -2.215946957058085
703.3444816053512 1.6752524724082105e-17 -2.2033446785436372
707.0234113712374 1e-24 -2.72243601019384
707.0234113712374 1.5156607589006075e-24 -2.7097678139125554
707.0234113712374 2.2972275360711464e-24 -2.6970996176312707
707.0234113712374 3.4818176306889665e-24 -2.6844314213499856
707.0234113712374 5.277254352483554e-24 -2.6717632250687005
707.0234113712374 7.998527336796691e-24 -2.6590950287874158
707.0234113712374 1.2123054013376528e-23 -2.646426832506131
707.0234113712374 1.8374437246107323e-23 -2.6337586362248464
707.0234113712374 2.7849413500806386e-23 -2.6210904399435617
707.0234113712374 4.221026320156903e-23 -2.6084222436622766
707.0234113712374 6.39764395574845e-23 -2.5957540473809915
707.0234113712374 9.6966578931455e-23 -2.583085851099707
707.0234113712374 1.4696843861124476e-22 -2.570417654818422
707.0234113712374 2.2275429519995655e-22 -2.557749458537137
707.0234113712374 3.3761994411113333e-22 -2.5450812622558523
707.0234113712374 5.11717300711461e-22 -2.5324130659745676
707.0234113712374 7.75589832338897e-22 -2.519744869693283
707.0234113712374 1.1755310738783675e-21 -2.5070766734119982
707.0234113712374 1.7817063195457326e-21 -2.494408477130713
707.0234113712374 2.700462352420693e-21 -2.481740280849428
707.0234113712374 4.092984818452434e-21 -2.4690720845681433
707.0234113712374 6.2035764761042814e-21 -2.4564038882868586
707.0234113712374 9.402517429670094e-21 -2.443735692005574
707.0234113712374 1.4251026703029964e-20 -2.431067495724289
707.0234113712374 2.1599721947827215e-20 -2.4183992994430037
707.0234113712374 3.2737850959485906e-20 -2.405731103161719
707.0234113712374 4.961947603002898e-20 -2.3930629068804343
707.0234113712374 7.520629269592423e-20 -2.3803947105991496
707.0234113712374 1.1398722666160479e-19 -2.367726514317865
707.0234113712374 1.7276596646690347e-19 -2.35505831803658
707.0234113712374 2.618545958474238e-19 -2.342390121755295
707.0234113712374 3.9688273546371497e-19 -2.32972192547401
707.0234113712374 6.015395880274832e-19 -2.3170537291927253
707.0234113712374 9.11729948498494e-19 -2.3043855329114407
707.0234113712374 1.381873305653628e-18 -2.291717336630156
707.0234113712374 2.0944511431514688e-18 -2.279049140348871
707.0234113712374 3.1744774091092e-18 -2.266380944067586
707.0234113712374 4.8114308390032444e-18 -2.2537127477863015
707.0234113712374 7.292496916841444e-18 -2.2410445515050164
707.0234113712374 1.1052951411260153e-17 -2.2283763552237317
707.0234113712374 1.6752524724082105e-17 -2.2157081589424465
707.0234113712374 2.539114433680347e-17 -2.203039962661162
710.7023411371238 1e-24 -2.737439446542859
710.7023411371238 1.5156607589006075e-24 -2.724705332494737
710.7023411371238 2.2972275360711464e-24 -2.7119712184466147
710.7023411371238 3.4818176306889665e-24 -2.6992371043984926
710.7023411371238 5.277254352483554e-24 -2.6865029903503705
710.7023411371238 7.998527336796691e-24 -2.6737688763022485
710.7023411371238 1.2123054013376528e-23 -2.6610347622541264
710.7023411371238 1.8374437246107323e-23 -2.648300648206004
710.7023411371238 2.7849413500806386e-23 -2.635566534157882
710.7023411371238 4.221026320156903e-23 -2.6228324201097597
710.7023411371238 6.39764395574845e-23 -2.610098306061637
710.7023411371238 9.6966578931455e-23 -2.597364192013515
710.7023411371238 1.4696843861124476e-22 -2.584630077965393
710.7023411371238 2.2275429519995655e-22 -2.571895963917271
710.7023411371238 3.3761994411113333e-22 -2.559161849869149
710.7023411371238 5.11717300711461e-22 -2.5464277358210268
710.7023411371238 7.75589832338897e-22 -2.5336936217729047
710.7023411371238 1.1755310738783675e-21 -2.5209595077247826
710.7023411371238 1.7817063195457326e-21 -2.5082253936766596
710.7023411371238 2.700462352420693e-21 -2.4954912796285376
710.7023411371238 4.092984818452434e-21 -2.4827571655804155
710.7023411371238 6.2035764761042814e-21 -2.4700230515322934
710.7023411371238 9.402517429670094e-21 -2.4572889374841713
710.7023411371238 1.4251026703029964e-20 -2.4445548234360492
710.7023411371238 2.1599721947827215e-20 -2.431820709387927
710.7023411371238 3.2737850959485906e-20 -2.4190865953398046
710.7023411371238 4.961947603002898e-20 -2.4063524812916826
710.7023411371238 7.520629269592423e-20 -2.3936183672435605
710.7023411371238 1.1398722666160479e-19 -2.3808842531954384
710.7023411371238 1.7276596646690347e-19 -2.368150139147316
710.7023411371238 2.618545958474238e-19 -2.355416025099194
710.7023411371238 3.9688273546371497e-19 -2.3426819110510717
710.7023411371238 6.015395880274832e-19 -2.3299477970029496
710.7023411371238 9.11729948498494e-19 -2.3172136829548275
710.7023411371238 1.381873305653628e-18 -2.3044795689067055
710.7023411371238 2.0944511431514688e-18 -2.2917454548585834
710.7023411371238 3.1744774091092e-18 -2.279011340810461
710.7023411371238 4.8114308390032444e-18 -2.266277226762339
710.7023411371238 7.292496916841444e-18 -2.2535431127142163
710.7023411371238 1.1052951411260153e-17 -2.240808998666094
710.7023411371238 1.6752524724082105e-17 -2.228074884617972
710.7023411371238 2.539114433680347e-17 -2.21534077056985
710.7023411371238 3.8484361094874406e-17 -2.202606656521728
714.3812709030101 1e-24 -2.7524461142300236
714.3812709030101 1.5156607589006075e-24 -2.7396460824150646
714.3812709030101 2.2972275360711464e-24 -2.7268460506001047
714.3812709030101 3.4818176306889665e-24 -2.7140460187851456
714.3812709030101 5.277254352483554e-24 -2.7012459869701857
714.3812709030101 7.998527336796691e-24 -2.688445955155226
714.3812709030101 1.2123054013376528e-23 -2.6756459233402667
714.3812709030101 1.8374437246107323e-23 -2.6628458915253073
714.3812709030101 2.7849413500806386e-23 -2.650045859710348
714.3812709030101 4.221026320156903e-23 -2.6372458278953883
714.3812709030101 6.39764395574845e-23 -2.624445796080429
714.3812709030101 9.6966578931455e-23 -2.611645764265469
714.3812709030101 1.4696843861124476e-22 -2.59884573245051
714.3812709030101 2.2275429519995655e-22 -2.58604570063555
714.3812709030101 3.3761994411113333e-22 -2.573245668820591
714.3812709030101 5.11717300711461e-22 -2.560445637005631
714.3812709030101 7.75589832338897e-22 -2.547645605190672
714.3812709030101 1.1755310738783675e-21 -2.534845573375712
714.3812709030101 1.7817063195457326e-21 -2.5220455415607526
714.3812709030101 2.700462352420693e-21 -2.509245509745793
714.3812709030101 4.092984818452434e-21 -2.4964454779308336
714.3812709030101 6.2035764761042814e-21 -2.483645446115874
714.3812709030101 9.402517429670094e-21 -2.4708454143009146
714.3812709030101 1.4251026703029964e-20 -2.458045382485955
714.3812709030101 2.1599721947827215e-20 -2.4452453506709952
714.3812709030101 3.2737850959485906e-20 -2.4324453188560358
714.3812709030101 4.961947603002898e-20 -2.4196452870410763
714.3812709030101 7.520629269592423e-20 -2.406845255226117
714.3812709030101 1.1398722666160479e-19 -2.3940452234111573
714.3812709030101 1.7276596646690347e-19 -2.3812451915961983
714.3812709030101 2.618545958474238e-19 -2.3684451597812384
714.3812709030101 3.9688273546371497e-19 -2.355645127966279
714.3812709030101 6.015395880274832e-19 -2.3428450961513194
714.3812709030101 9.11729948498494e-19 -2.3300450643363595
714.3812709030101 1.381873305653628e-18 -2.3172450325214005
714.3812709030101 2.0944511431514688e-18 -2.304445000706441
714.3812709030101 3.1744774091092e-18 -2.2916449688914815
714.3812709030101 4.8114308390032444e-18 -2.278844937076522
714.3812709030101 7.292496916841444e-18 -2.2660449052615625
714.3812709030101 1.1052951411260153e-17 -2.2532448734466026
714.3812709030101 1.6752524724082105e-17 -2.2404448416316436
714.3812709030101 2.539114433680347e-17 -2.2276448098166837
714.3812709030101 3.8484361094874406e-17 -2.214844778001724
714.3812709030101 5.832923594286188e-17 -2.2020447461867647
718.0602006688964 1e-24 -2.767455999442695
718.0602006688964 1.5156607589006075e-24 -2.754590049860898
718.0602006688964 2.2972275360711464e-24 -2.7417241002791015
718.0602006688964 3.4818176306889665e-24 -2.728858150697304
718.0602006688964 5.277254352483554e-24 -2.7159922011155073
718.0602006688964 7.998527336796691e-24 -2.7031262515337104
718.0602006688964 1.2123054013376528e-23 -2.6902603019519136
718.0602006688964 1.8374437246107323e-23 -2.6773943523701167
718.0602006688964 2.7849413500806386e-23 -2.6645284027883203
718.0602006688964 4.221026320156903e-23 -2.6516624532065234
718.0602006688964 6.39764395574845e-23 -2.638796503624726
718.0602006688964 9.6966578931455e-23 -2.6259305540429296
718.0602006688964 1.4696843861124476e-22 -2.6130646044611328
718.0602006688964 2.2275429519995655e-22 -2.600198654879336
718.0602006688964 3.3761994411113333e-22 -2.587332705297539
718.0602006688964 5.11717300711461e-22 -2.574466755715742
718.0602006688964 7.75589832338897e-22 -2.5616008061339453
718.0602006688964 1.1755310738783675e-21 -2.5487348565521484
718.0602006688964 1.7817063195457326e-21 -2.5358689069703515
718.0602006688964 2.700462352420693e-21 -2.5230029573885546
718.0602006688964 4.092984818452434e-21 -2.5101370078067577
718.0602006688964 6.2035764761042814e-21 -2.497271058224961
718.0602006688964 9.402517429670094e-21 -2.4844051086431644
718.0602006688964 1.4251026703029964e-20 -2.4715391590613676
718.0602006688964 2.1599721947827215e-20 -2.4586732094795702
718.0602006688964 3.2737850959485906e-20 -2.4458072598977734
718.0602006688964 4.961947603002898e-20 -2.4329413103159765
718.0602006688964 7.520629269592423e-20 -2.4200753607341796
718.0602006688964 1.1398722666160479e-19 -2.407209411152383
718.0602006688964 1.7276596646690347e-19 -2.3943434615705863
718.0602006688964 2.618545958474238e-19 -2.3814775119887894
718.0602006688964 3.9688273546371497e-19 -2.3686115624069926
718.0602006688964 6.015395880274832e-19 -2.3557456128251957
718.0602006688964 9.11729948498494e-19 -2.342879663243399
718.0602006688964 1.381873305653628e-18 -2.330013713661602
718.0602006688964 2.0944511431514688e-18 -2.317147764079805
718.0602006688964 3.1744774091092e-18 -2.304281814498008
718.0602006688964 4.8114308390032444e-18 -2.2914158649162113
718.0602006688964 7.292496916841444e-18 -2.2785499153344144
718.0602006688964 1.1052951411260153e-17 -2.2656839657526175
718.0602006688964 1.6752524724082105e-17 -2.2528180161708207
718.0602006688964 2.539114433680347e-17 -2.239952066589024
718.0602006688964 3.8484361094874406e-17 -2.227086117007227
718.0602006688964 5.832923594286188e-17 -2.2142201674254305
718.0602006688964 8.840733401525062e-17 -2.201354217843633
721.7391304347826 1e-24 -2.7824690884922028
721.7391304347826 1.5156607589006075e-24 -2.769537221143569
721.7391304347826 2.2972275360711464e-24 -2.756605353794935
721.7391304347826 3.4818176306889665e-24 -2.7436734864463004
721.7391304347826 5.277254352483554e-24 -2.730741619097666
721.7391304347826 7.998527336796691e-24 -2.717809751749032
721.7391304347826 1.2123054013376528e-23 -2.704877884400398
721.7391304347826 1.8374437246107323e-23 -2.6919460170517637
721.7391304347826 2.7849413500806386e-23 -2.6790141497031295
721.7391304347826 4.221026320156903e-23 -2.6660822823544956
721.7391304347826 6.39764395574845e-23 -2.653150415005861
721.7391304347826 9.6966578931455e-23 -2.640218547657227
721.7391304347826 1.4696843861124476e-22 -2.627286680308593
721.7391304347826 2.2275429519995655e-22 -2.6143548129599585
721.7391304347826 3.3761994411113333e-22 -2.6014229456113247
721.7391304347826 5.11717300711461e-22 -2.58849107826269
721.7391304347826 7.75589832338897e-22 -2.575559210914056
721.7391304347826 1.1755310738783675e-21 -2.5626273435654223
721.7391304347826 1.7817063195457326e-21 -2.5496954762167876
721.7391304347826 2.700462352420693e-21 -2.5367636088681533
721.7391304347826 4.092984818452434e-21 -2.523831741519519
721.7391304347826 6.2035764761042814e-21 -2.5108998741708852
721.7391304347826 9.402517429670094e-21 -2.4979680068222514
721.7391304347826 1.4251026703029964e-20 -2.4850361394736167
721.7391304347826 2.1599721947827215e-20 -2.4721042721249824
721.7391304347826 3.2737850959485906e-20 -2.459172404776348
721.7391304347826 4.961947603002898e-20 -2.4462405374277143
721.7391304347826 7.520629269592423e-20 -2.4333086700790796
721.7391304347826 1.1398722666160479e-19 -2.4203768027304458
721.7391304347826 1.7276596646690347e-19 -2.407444935381812
721.7391304347826 2.618545958474238e-19 -2.394513068033177
721.7391304347826 3.9688273546371497e-19 -2.3815812006845434
721.7391304347826 6.015395880274832e-19 -2.3686493333359087
721.7391304347826 9.11729948498494e-19 -2.355717465987275
721.7391304347826 1.381873305653628e-18 -2.342785598638641
721.7391304347826 2.0944511431514688e-18 -2.3298537312900063
721.7391304347826 3.1744774091092e-18 -2.3169218639413725
721.7391304347826 4.8114308390032444e-18 -2.303989996592738
721.7391304347826 7.292496916841444e-18 -2.291058129244104
721.7391304347826 1.1052951411260153e-17 -2.27812626189547
721.7391304347826 1.6752524724082105e-17 -2.2651943945468354
721.7391304347826 2.539114433680347e-17 -2.2522625271982015
721.7391304347826 3.8484361094874406e-17 -2.239330659849567
721.7391304347826 5.832923594286188e-17 -2.226398792500933
721.7391304347826 8.840733401525062e-17 -2.2134669251522987
721.7391304347826 1.339955269659337e-16 -2.2005350578036644
725.418060200669 1e-24 -2.7974853678119307
725.418060200669 1.5156607589006075e-24 -2.7844875826964595
725.418060200669 2.2972275360711464e-24 -2.771489797580988
725.418060200669 3.4818176306889665e-24 -2.758492012465516
725.418060200669 5.277254352483554e-24 -2.7454942273500444
725.418060200669 7.998527336796691e-24 -2.7324964422345728
725.418060200669 1.2123054013376528e-23 -2.7194986571191015
725.418060200669 1.8374437246107323e-23 -2.70650087200363
725.418060200669 2.7849413500806386e-23 -2.6935030868881586
725.418060200669 4.221026320156903e-23 -2.680505301772687
725.418060200669 6.39764395574845e-23 -2.6675075166572153
725.418060200669 9.6966578931455e-23 -2.6545097315417436
725.418060200669 1.4696843861124476e-22 -2.641511946426272
725.418060200669 2.2275429519995655e-22 -2.6285141613108007
725.418060200669 3.3761994411113333e-22 -2.6155163761953295
725.418060200669 5.11717300711461e-22 -2.602518591079858
725.418060200669 7.75589832338897e-22 -2.589520805964386
725.418060200669 1.1755310738783675e-21 -2.576523020848915
725.418060200669 1.7817063195457326e-21 -2.563525235733443
725.418060200669 2.700462352420693e-21 -2.5505274506179716
725.418060200669 4.092984818452434e-21 -2.5375296655025004
725.418060200669 6.2035764761042814e-21 -2.5245318803870287
725.418060200669 9.402517429670094e-21 -2.511534095271557
725.418060200669 1.4251026703029964e-20 -2.4985363101560853
725.418060200669 2.1599721947827215e-20 -2.4855385250406137
725.418060200669 3.2737850959485906e-20 -2.472540739925142
725.418060200669 4.961947603002898e-20 -2.4595429548096712
725.418060200669 7.520629269592423e-20 -2.4465451696941996
725.418060200669 1.1398722666160479e-19 -2.433547384578728
725.418060200669 1.7276596646690347e-19 -2.420549599463256
725.418060200669 2.618545958474238e-19 -2.4075518143477845
725.418060200669 3.9688273546371497e-19 -2.3945540292323133
725.418060200669 6.015395880274832e-19 -2.3815562441168416
725.418060200669 9.11729948498494e-19 -2.3685584590013704
725.418060200669 1.381873305653628e-18 -2.3555606738858987
725.418060200669 2.0944511431514688e-18 -2.342562888770427
725.418060200669 3.1744774091092e-18 -2.3295651036549554
725.418060200669 4.8114308390032444e-18 -2.3165673185394846
725.418060200669 7.292496916841444e-18 -2.3035695334240125
725.418060200669 1.1052951411260153e-17 -2.2905717483085413
725.418060200669 1.6752524724082105e-17 -2.2775739631930696
725.418060200669 2.539114433680347e-17 -2.264576178077598
725.418060200669 3.8484361094874406e-17 -2.2515783929621263
725.418060200669 5.832923594286188e-17 -2.238580607846655
725.418060200669 8.840733401525062e-17 -2.2255828227311834
725.418060200669 1.339955269659337e-16 -2.212585037615712
729.0969899665553 1e-24 -2.812504823955437
729.0969899665553 1.5156607589006075e-24 -2.7994411210731274
729.0969899665553 2.2972275360711464e-24 -2.7863774181908187
729.0969899665553 3.4818176306889665e-24 -2.77331371530851
729.0969899665553 5.277254352483554e-24 -2.760250012426201
729.0969899665553 7.998527336796691e-24 -2.747186309543892
729.0969899665553 1.2123054013376528e-23 -2.7341226066615834
729.0969899665553 1.8374437246107323e-23 -2.7210589037792747
729.0969899665553 2.7849413500806386e-23 -2.7079952008969657
729.0969899665553 4.221026320156903e-23 -2.6949314980146566
729.0969899665553 6.39764395574845e-23 -2.681867795132348
729.0969899665553 9.6966578931455e-23 -2.6688040922500393
729.0969899665553 1.4696843861124476e-22 -2.65574038936773
729.0969899665553 2.2275429519995655e-22 -2.642676686485421
729.0969899665553 3.3761994411113333e-22 -2.6296129836031126
729.0969899665553 5.11717300711461e-22 -2.6165492807208035
729.0969899665553 7.75589832338897e-22 -2.603485577838495
729.0969899665553 1.1755310738783675e-21 -2.590421874956186
729.0969899665553 1.7817063195457326e-21 -2.577358172073877
729.0969899665553 2.700462352420693e-21 -2.5642944691915677
729.0969899665553 4.092984818452434e-21 -2.551230766309259
729.0969899665553 6.2035764761042814e-21 -2.5381670634269504
729.0969899665553 9.402517429670094e-21 -2.525103360544642
729.0969899665553 1.4251026703029964e-20 -2.5120396576623327
729.0969899665553 2.1599721947827215e-20 -2.4989759547800237
729.0969899665553 3.2737850959485906e-20 -2.485912251897715
729.0969899665553 4.961947603002898e-20 -2.472848549015406
729.0969899665553 7.520629269592423e-20 -2.459784846133097
729.0969899665553 1.1398722666160479e-19 -2.4467211432507883
729.0969899665553 1.7276596646690347e-19 -2.4336574403684796
729.0969899665553 2.618545958474238e-19 -2.4205937374861706
729.0969899665553 3.9688273546371497e-19 -2.4075300346038615
729.0969899665553 6.015395880274832e-19 -2.394466331721553
729.0969899665553 9.11729948498494e-19 -2.381402628839244
729.0969899665553 1.381873305653628e-18 -2.368338925956935
729.0969899665553 2.0944511431514688e-18 -2.355275223074626
729.0969899665553 3.1744774091092e-18 -2.3422115201923175
729.0969899665553 4.8114308390032444e-18 -2.329147817310009
729.0969899665553 7.292496916841444e-18 -2.3160841144276993
729.0969899665553 1.1052951411260153e-17 -2.3030204115453907
729.0969899665553 1.6752524724082105e-17 -2.289956708663082
729.0969899665553 2.539114433680347e-17 -2.276893005780773
729.0969899665553 3.8484361094874406e-17 -2.263829302898464
729.0969899665553 5.832923594286188e-17 -2.2507656000161553
729.0969899665553 8.840733401525062e-17 -2.2377018971338463
729.0969899665553 1.339955269659337e-16 -2.2246381942515376
729.0969899665553 2.0309176209047306e-16 -2.2115744913692286
732.7759197324415 1e-24 -2.82752744359463
732.7759197324415 1.5156607589006075e-24 -2.814397822945484
732.7759197324415 2.2972275360711464e-24 -2.8012682022963373
732.7759197324415 3.4818176306889665e-24 -2.7881385816471913
732.7759197324415 5.277254352483554e-24 -2.775008960998045
732.7759197324415 7.998527336796691e-24 -2.761879340348899
732.7759197324415 1.2123054013376528e-23 -2.7487497196997523
732.7759197324415 1.8374437246107323e-23 -2.7356200990506063
732.7759197324415 2.7849413500806386e-23 -2.7224904784014603
732.7759197324415 4.221026320156903e-23 -2.709360857752314
732.7759197324415 6.39764395574845e-23 -2.6962312371031674
732.7759197324415 9.6966578931455e-23 -2.683101616454022
732.7759197324415 1.4696843861124476e-22 -2.6699719958048753
732.7759197324415 2.2275429519995655e-22 -2.656842375155729
732.7759197324415 3.3761994411113333e-22 -2.6437127545065833
732.7759197324415 5.11717300711461e-22 -2.630583133857437
732.7759197324415 7.75589832338897e-22 -2.617453513208291
732.7759197324415 1.1755310738783675e-21 -2.6043238925591448
732.7759197324415 1.7817063195457326e-21 -2.5911942719099983
732.7759197324415 2.700462352420693e-21 -2.578064651260852
732.7759197324415 4.092984818452434e-21 -2.564935030611706
732.7759197324415 6.2035764761042814e-21 -2.55180540996256
732.7759197324415 9.402517429670094e-21 -2.5386757893134133
732.7759197324415 1.4251026703029964e-20 -2.5255461686642673
732.7759197324415 2.1599721947827215e-20 -2.512416548015121
732.7759197324415 3.2737850959485906e-20 -2.499286927365975
732.7759197324415 4.961947603002898e-20 -2.4861573067168283
732.7759197324415 7.520629269592423e-20 -2.4730276860676823
732.7759197324415 1.1398722666160479e-19 -2.4598980654185363
732.7759197324415 1.7276596646690347e-19 -2.44676844476939
732.7759197324415 2.618545958474238e-19 -2.433638824120244
732.7759197324415 3.9688273546371497e-19 -2.4205092034710978
732.7759197324415 6.015395880274832e-19 -2.4073795828219513
732.7759197324415 9.11729948498494e-19 -2.394249962172805
732.7759197324415 1.381873305653628e-18 -2.3811203415236593
732.7759197324415 2.0944511431514688e-18 -2.367990720874513
732.7759197324415 3.1744774091092e-18 -2.3548611002253663
732.7759197324415 4.8114308390032444e-18 -2.3417314795762207
732.7759197324415 7.292496916841444e-18 -2.3286018589270743
732.7759197324415 1.1052951411260153e-17 -2.315472238277928
732.7759197324415 1.6752524724082105e-17 -2.302342617628782
732.7759197324415 2.539114433680347e-17 -2.2892129969796358
732.7759197324415 3.8484361094874406e-17 -2.2760833763304893
732.7759197324415 5.832923594286188e-17 -2.2629537556813433
732.7759197324415 8.840733401525062e-17 -2.249824135032197
732.7759197324415 1.339955269659337e-16 -2.236694514383051
732.7759197324415 2.0309176209047306e-16 -2.2235648937339043
732.7759197324415 3.0781821425650803e-16 -2.2104352730847583
736.4548494983278 1e-24 -2.842553213517981
736.4548494983278 1.5156607589006075e-24 -2.8293576751019978
736.4548494983278 2.2972275360711464e-24 -2.8161621366860143
736.4548494983278 3.4818176306889665e-24 -2.802966598270031
736.4548494983278 5.277254352483554e-24 -2.789771059854047
736.4548494983278 7.998527336796691e-24 -2.7765755214380636
736.4548494983278 1.2123054013376528e-23 -2.76337998302208
736.4548494983278 1.8374437246107323e-23 -2.7501844446060963
736.4548494983278 2.7849413500806386e-23 -2.736988906190113
736.4548494983278 4.221026320156903e-23 -2.7237933677741295
736.4548494983278 6.39764395574845e-23 -2.7105978293581456
736.4548494983278 9.6966578931455e-23 -2.697402290942162
736.4548494983278 1.4696843861124476e-22 -2.684206752526179
736.4548494983278 2.2275429519995655e-22 -2.671011214110195
736.4548494983278 3.3761994411113333e-22 -2.657815675694212
736.4548494983278 5.11717300711461e-22 -2.644620137278228
736.4548494983278 7.75589832338897e-22 -2.6314245988622447
736.4548494983278 1.1755310738783675e-21 -2.6182290604462612
736.4548494983278 1.7817063195457326e-21 -2.6050335220302774
736.4548494983278 2.700462352420693e-21 -2.591837983614294
736.4548494983278 4.092984818452434e-21 -2.5786424451983105
736.4548494983278 6.2035764761042814e-21 -2.565446906782327
736.4548494983278 9.402517429670094e-21 -2.5522513683663437
736.4548494983278 1.4251026703029964e-20 -2.53905582995036
736.4548494983278 2.1599721947827215e-20 -2.525860291534376
736.4548494983278 3.2737850959485906e-20 -2.5126647531183925
736.4548494983278 4.961947603002898e-20 -2.499469214702409
736.4548494983278 7.520629269592423e-20 -2.4862736762864257
736.4548494983278 1.1398722666160479e-19 -2.4730781378704423
736.4548494983278 1.7276596646690347e-19 -2.459882599454459
736.4548494983278 2.618545958474238e-19 -2.446687061038475
736.4548494983278 3.9688273546371497e-19 -2.4334915226224916
736.4548494983278 6.015395880274832e-19 -2.4202959842065077
736.4548494983278 9.11729948498494e-19 -2.4071004457905243
736.4548494983278 1.381873305653628e-18 -2.393904907374541
736.4548494983278 2.0944511431514688e-18 -2.3807093689585574
736.4548494983278 3.1744774091092e-18 -2.3675138305425736
736.4548494983278 4.8114308390032444e-18 -2.3543182921265906
736.4548494983278 7.292496916841444e-18 -2.3411227537106067
736.4548494983278 1.1052951411260153e-17 -2.3279272152946233
736.4548494983278 1.6752524724082105e-17 -2.3147316768786395
736.4548494983278 2.539114433680347e-17 -2.301536138462656
736.4548494983278 3.8484361094874406e-17 -2.2883406000466726
736.4548494983278 5.832923594286188e-17 -2.275145061630689
736.4548494983278 8.840733401525062e-17 -2.2619495232147053
736.4548494983278 1.339955269659337e-16 -2.248753984798722
736.4548494983278 2.0309176209047306e-16 -2.2355584463827385
736.4548494983278 3.0781821425650803e-16 -2.2223629079667546
736.4548494983278 4.665479882234468e-16 -2.209167369550771
740.1337792642141 1e-24 -2.857582120628776
740.1337792642141 1.5156607589006075e-24 -2.8443206644459553
740.1337792642141 2.2972275360711464e-24 -2.8310592082631345
740.1337792642141 3.4818176306889665e-24 -2.8177977520803137
740.1337792642141 5.277254352483554e-24 -2.804536295897493
740.1337792642141 7.998527336796691e-24 -2.7912748397146716
740.1337792642141 1.2123054013376528e-23 -2.7780133835318512
740.1337792642141 1.8374437246107323e-23 -2.76475192734903
740.1337792642141 2.7849413500806386e-23 -2.7514904711662096
740.1337792642141 4.221026320156903e-23 -2.7382290149833883
740.1337792642141 6.39764395574845e-23 -2.724967558800567
740.1337792642141 9.6966578931455e-23 -2.7117061026177467
740.1337792642141 1.4696843861124476e-22 -2.6984446464349254
740.1337792642141 2.2275429519995655e-22 -2.6851831902521046
740.1337792642141 3.3761994411113333e-22 -2.671921734069284
740.1337792642141 5.11717300711461e-22 -2.6586602778864634
740.1337792642141 7.75589832338897e-22 -2.645398821703642
740.1337792642141 1.1755310738783675e-21 -2.632137365520822
740.1337792642141 1.7817063195457326e-21 -2.6188759093380005
740.1337792642141 2.700462352420693e-21 -2.6056144531551793
740.1337792642141 4.092984818452434e-21 -2.592352996972359
740.1337792642141 6.2035764761042814e-21 -2.5790915407895376
740.1337792642141 9.402517429670094e-21 -2.5658300846067172
[...]
1192.6421404682276 2.7849413500806386e-23 -4.555793129119969
1192.6421404682276 4.221026320156903e-23 -4.534423787616156
1192.6421404682276 6.39764395574845e-23 -4.513054446112342
1192.6421404682276 9.6966578931455e-23 -4.491685104608528
1192.6421404682276 1.4696843861124476e-22 -4.470315763104715
1192.6421404682276 2.2275429519995655e-22 -4.448946421600901
1192.6421404682276 3.3761994411113333e-22 -4.427577080097088
1192.6421404682276 5.11717300711461e-22 -4.406207738593275
1192.6421404682276 7.75589832338897e-22 -4.384838397089462
1192.6421404682276 1.1755310738783675e-21 -4.363469055585648
1192.6421404682276 1.7817063195457326e-21 -4.342099714081835
1192.6421404682276 2.700462352420693e-21 -4.320730372578021
1192.6421404682276 4.092984818452434e-21 -4.299361031074207
1192.6421404682276 6.2035764761042814e-21 -4.277991689570394
1192.6421404682276 9.402517429670094e-21 -4.25662234806658
1192.6421404682276 1.4251026703029964e-20 -4.2352530065627665
1192.6421404682276 2.1599721947827215e-20 -4.213883665058953
1192.6421404682276 3.2737850959485906e-20 -4.192514323555139
1192.6421404682276 4.961947603002898e-20 -4.1711449820513264
1192.6421404682276 7.520629269592423e-20 -4.149775640547513
1192.6421404682276 1.1398722666160479e-19 -4.1284062990437
1192.6421404682276 1.7276596646690347e-19 -4.107036957539886
1192.6421404682276 2.618545958474238e-19 -4.085667616036073
1192.6421404682276 3.9688273546371497e-19 -4.064298274532259
1192.6421404682276 6.015395880274832e-19 -4.0429289330284455
1192.6421404682276 9.11729948498494e-19 -4.021559591524632
1192.6421404682276 1.381873305653628e-18 -4.000190250020818
1192.6421404682276 2.0944511431514688e-18 -3.978820908517005
1192.6421404682276 3.1744774091092e-18 -3.9574515670131913
1192.6421404682276 4.8114308390032444e-18 -3.936082225509378
1192.6421404682276 7.292496916841444e-18 -3.914712884005564
1192.6421404682276 1.1052951411260153e-17 -3.893343542501751
1192.6421404682276 1.6752524724082105e-17 -3.871974200997937
1192.6421404682276 2.539114433680347e-17 -3.850604859494124
1192.6421404682276 3.8484361094874406e-17 -3.8292355179903104
1192.6421404682276 5.832923594286188e-17 -3.807866176486497
1192.6421404682276 8.840733401525062e-17 -3.786496834982683
1192.6421404682276 1.339955269659337e-16 -3.76512749347887
1192.6421404682276 2.0309176209047306e-16 -3.7437581519750562
1192.6421404682276 3.0781821425650803e-16 -3.7223888104712426
1192.6421404682276 4.665479882234468e-16 -3.7010194689674294
1192.6421404682276 7.071284778942982e-16 -3.679650127463616
1192.6421404682276 1.0717668854455033e-15 -3.658280785959802
1192.6421404682276 1.6244350109588655e-15 -3.636911444455989
1192.6421404682276 2.4620924014946205e-15 -3.6155421029521753
1192.6421404682276 3.7316968377327554e-15 -3.5941727614483616
1192.6421404682276 5.655986461065002e-15 -3.572803419944548
1192.6421404682276 8.572556731909307e-15 -3.5514340784407348
1192.6421404682276 1.2993087842004172e-14 -3.5300647369369216
1192.6421404682276 1.969311337907422e-14 -3.508695395433108
1192.6421404682276 2.9848079169243215e-14 -3.4873260539292943
1192.6421404682276 4.52395623253804e-14 -3.465956712425481
1192.6421404682276 6.856782936641738e-14 -3.444587370921667
1192.6421404682276 1.039255682936711e-13 -3.4232180294178542
1192.6421404682276 1.575159057091618e-13 -3.4018486879140406
1192.6421404682276 2.387406771860647e-13 -3.380479346410227
1192.6421404682276 3.618498759642743e-13 -3.3591100049064133
1192.6421404682276 5.484416576121004e-13 -3.3377406634026
1192.6421404682276 8.312514989890632e-13 -3.3163713218987865
1192.6421404682276 1.259895277795026e-12 -3.295001980394973
1192.6421404682276 1.909573832878093e-12 -3.2736326388911596
1192.6421404682276 2.8942661247167518e-12 -3.252263297387346
1192.6421404682276 4.386725591048494e-12 -3.2308939558835323
1192.6421404682276 6.648787838417249e-12 -3.2095246143797187
1192.6421404682276 1.0077306820944577e-11 -3.1881552728759055
1192.6421404682276 1.5273778503907126e-11 -3.166785931372092
1192.6421404682276 2.3149866718511562e-11 -3.1454165898682787
1192.6421404682276 3.508734455902701e-11 -3.124047248364465
1192.6421404682276 5.318051128214197e-11 -3.1026779068606514
1192.6421404682276 8.060361408861329e-11 -3.0813085653568377
1192.6421404682276 1.221677348996788e-10 -3.0599392238530245
1192.6421404682276 1.851648417912154e-10 -3.038569882349211
1192.6421404682276 2.806470846309833e-10 -3.0172005408453977
1192.6421404682276 4.253657732750374e-10 -2.995831199341584
1192.6421404682276 6.44710210732387e-10 -2.9744618578377704
1192.6421404682276 9.771619672696162e-10 -2.9530925163339568
1192.6421404682276 1.481046048880671e-09 -2.9317231748301436
1192.6421404682276 2.2447633784132237e-09 -2.9103538333263295
1192.6421404682276 3.402299765678064e-09 -2.8889844918225163
1192.6421404682276 5.1567322448549524e-09 -2.867615150318703
1192.6421404682276 7.81585670768409e-09 -2.8462458088148894
1192.6421404682276 1.1846187309026775e-08 -2.824876467311076
1192.6421404682276 1.7954801246878268e-08 -2.803507125807262
1192.6421404682276 2.7213387683753087e-08 -2.7821377843034485
1192.6421404682276 4.124626382901331e-08 -2.7607684427996357
1192.6421404682276 6.251534353689698e-08 -2.739399101295822
1192.6421404682276 9.475205302806548e-08 -2.7180297597920084
1192.6421404682276 1.4361196859990713e-07 -2.696660418288195
1192.6421404682276 2.1766702531534547e-07 -2.675291076784381
1192.6421404682276 3.2990936877709424e-07 -2.6539217352805675
1192.6421404682276 5.00030684249107e-07 -2.6325523937767548
1192.6421404682276 7.578768863625914e-07 -2.611183052272941
1192.6421404682276 1.1486842567375548e-06 -2.5898137107691275
1192.6421404682276 1.7410156523040083e-06 -2.568444369265314
1192.6421404682276 2.6387891048289292e-06 -2.5470750277615
1192.6421404682276 3.99950909720367e-06 -2.5257056862576865
1192.6421404682276 6.0618989934975476e-06 -2.504336344753874
1192.6421404682276 9.187782428863321e-06 -2.4829670032500597
1192.6421404682276 1.3925561288744647e-05 -2.4615976617462465
1192.6421404682276 2.110642679101546e-05 -2.440228320242433
1192.6421404682276 3.199018284775061e-05 -2.418858978738619
1192.6421404682276 4.848626481239088e-05 -2.3974896372348056
1192.6421404682276 7.348872892180358e-05 -2.376120295730993
1192.6421404682276 0.00011138398264826183 -2.3547509542271787
1192.6421404682276 0.00016882033167003662 -2.333381612723365
1192.6421404682276 0.00025587435201685784 -2.312012271219552
1192.6421404682276 0.00038781871456107194 -2.2906429297157382
1192.6421404682276 0.0005878016072274876 -2.269273588211925
1192.6421404682276 0.0008909078300934106 -2.2479042467081114
1192.6421404682276 0.0013503140378698722 -2.2265349052042978
1192.6421404682276 0.0020466179993919773 -2.2051655637004846
1196.3210702341137 1e-24 -4.742090137531576
1196.3210702341137 1.5156607589006075e-24 -4.720654878260925
1196.3210702341137 2.2972275360711464e-24 -4.699219618990274
1196.3210702341137 3.4818176306889665e-24 -4.677784359719623
1196.3210702341137 5.277254352483554e-24 -4.656349100448972
1196.3210702341137 7.998527336796691e-24 -4.634913841178322
1196.3210702341137 1.2123054013376528e-23 -4.61347858190767
1196.3210702341137 1.8374437246107323e-23 -4.59204332263702
1196.3210702341137 2.7849413500806386e-23 -4.570608063366369
1196.3210702341137 4.221026320156903e-23 -4.5491728040957184
1196.3210702341137 6.39764395574845e-23 -4.527737544825067
1196.3210702341137 9.6966578931455e-23 -4.506302285554416
1196.3210702341137 1.4696843861124476e-22 -4.484867026283766
1196.3210702341137 2.2275429519995655e-22 -4.463431767013114
1196.3210702341137 3.3761994411113333e-22 -4.441996507742464
1196.3210702341137 5.11717300711461e-22 -4.420561248471813
1196.3210702341137 7.75589832338897e-22 -4.3991259892011625
1196.3210702341137 1.1755310738783675e-21 -4.377690729930512
1196.3210702341137 1.7817063195457326e-21 -4.35625547065986
1196.3210702341137 2.700462352420693e-21 -4.33482021138921
1196.3210702341137 4.092984818452434e-21 -4.313384952118559
1196.3210702341137 6.2035764761042814e-21 -4.291949692847908
1196.3210702341137 9.402517429670094e-21 -4.270514433577257
1196.3210702341137 1.4251026703029964e-20 -4.2490791743066065
1196.3210702341137 2.1599721947827215e-20 -4.227643915035955
1196.3210702341137 3.2737850959485906e-20 -4.2062086557653044
1196.3210702341137 4.961947603002898e-20 -4.184773396494654
1196.3210702341137 7.520629269592423e-20 -4.163338137224003
1196.3210702341137 1.1398722666160479e-19 -4.141902877953353
1196.3210702341137 1.7276596646690347e-19 -4.120467618682701
1196.3210702341137 2.618545958474238e-19 -4.099032359412051
1196.3210702341137 3.9688273546371497e-19 -4.0775971001414
1196.3210702341137 6.015395880274832e-19 -4.0561618408707485
1196.3210702341137 9.11729948498494e-19 -4.034726581600098
1196.3210702341137 1.381873305653628e-18 -4.013291322329447
1196.3210702341137 2.0944511431514688e-18 -3.9918560630587967
1196.3210702341137 3.1744774091092e-18 -3.970420803788145
1196.3210702341137 4.8114308390032444e-18 -3.9489855445174955
1196.3210702341137 7.292496916841444e-18 -3.927550285246844
1196.3210702341137 1.1052951411260153e-17 -3.9061150259761934
1196.3210702341137 1.6752524724082105e-17 -3.884679766705543
1196.3210702341137 2.539114433680347e-17 -3.8632445074348913
1196.3210702341137 3.8484361094874406e-17 -3.8418092481642407
1196.3210702341137 5.832923594286188e-17 -3.82037398889359
1196.3210702341137 8.840733401525062e-17 -3.7989387296229387
1196.3210702341137 1.339955269659337e-16 -3.777503470352288
1196.3210702341137 2.0309176209047306e-16 -3.7560682110816375
1196.3210702341137 3.0781821425650803e-16 -3.734632951810987
1196.3210702341137 4.665479882234468e-16 -3.7131976925403354
1196.3210702341137 7.071284778942982e-16 -3.691762433269685
1196.3210702341137 1.0717668854455033e-15 -3.6703271739990333
1196.3210702341137 1.6244350109588655e-15 -3.6488919147283836
1196.3210702341137 2.4620924014946205e-15 -3.627456655457732
1196.3210702341137 3.7316968377327554e-15 -3.6060213961870815
1196.3210702341137 5.655986461065002e-15 -3.584586136916431
1196.3210702341137 8.572556731909307e-15 -3.5631508776457803
1196.3210702341137 1.2993087842004172e-14 -3.541715618375129
1196.3210702341137 1.969311337907422e-14 -3.5202803591044782
1196.3210702341137 2.9848079169243215e-14 -3.498845099833827
1196.3210702341137 4.52395623253804e-14 -3.4774098405631766
1196.3210702341137 6.856782936641738e-14 -3.4559745812925255
1196.3210702341137 1.039255682936711e-13 -3.434539322021875
1196.3210702341137 1.575159057091618e-13 -3.413104062751224
1196.3210702341137 2.387406771860647e-13 -3.391668803480573
1196.3210702341137 3.618498759642743e-13 -3.3702335442099223
1196.3210702341137 5.484416576121004e-13 -3.3487982849392717
1196.3210702341137 8.312514989890632e-13 -3.3273630256686206
1196.3210702341137 1.259895277795026e-12 -3.3059277663979696
1196.3210702341137 1.909573832878093e-12 -3.284492507127319
1196.3210702341137 2.8942661247167518e-12 -3.263057247856668
1196.3210702341137 4.386725591048494e-12 -3.241621988586017
1196.3210702341137 6.648787838417249e-12 -3.2201867293153663
1196.3210702341137 1.0077306820944577e-11 -3.1987514700447157
1196.3210702341137 1.5273778503907126e-11 -3.1773162107740647
1196.3210702341137 2.3149866718511562e-11 -3.155880951503414
1196.3210702341137 3.508734455902701e-11 -3.134445692232763
1196.3210702341137 5.318051128214197e-11 -3.1130104329621124
1196.3210702341137 8.060361408861329e-11 -3.091575173691462
1196.3210702341137 1.221677348996788e-10 -3.070139914420811
1196.3210702341137 1.851648417912154e-10 -3.0487046551501598
1196.3210702341137 2.806470846309833e-10 -3.027269395879509
1196.3210702341137 4.253657732750374e-10 -3.0058341366088586
1196.3210702341137 6.44710210732387e-10 -2.984398877338207
1196.3210702341137 9.771619672696162e-10 -2.9629636180675565
1196.3210702341137 1.481046048880671e-09 -2.941528358796906
1196.3210702341137 2.2447633784132237e-09 -2.9200930995262544
1196.3210702341137 3.402299765678064e-09 -2.898657840255604
1196.3210702341137 5.1567322448549524e-09 -2.877222580984953
1196.3210702341137 7.81585670768409e-09 -2.855787321714302
1196.3210702341137 1.1846187309026775e-08 -2.8343520624436516
1196.3210702341137 1.7954801246878268e-08 -2.8129168031730005
1196.3210702341137 2.7213387683753087e-08 -2.79148154390235
1196.3210702341137 4.124626382901331e-08 -2.7700462846316993
1196.3210702341137 6.251534353689698e-08 -2.748611025361048
1196.3210702341137 9.475205302806548e-08 -2.7271757660903972
1196.3210702341137 1.4361196859990713e-07 -2.7057405068197466
1196.3210702341137 2.1766702531534547e-07 -2.6843052475490956
1196.3210702341137 3.2990936877709424e-07 -2.6628699882784446
1196.3210702341137 5.00030684249107e-07 -2.641434729007794
1196.3210702341137 7.578768863625914e-07 -2.6199994697371434
1196.3210702341137 1.1486842567375548e-06 -2.598564210466492
1196.3210702341137 1.7410156523040083e-06 -2.5771289511958417
1196.3210702341137 2.6387891048289292e-06 -2.5556936919251907
1196.3210702341137 3.99950909720367e-06 -2.5342584326545397
1196.3210702341137 6.0618989934975476e-06 -2.512823173383889
1196.3210702341137 9.187782428863321e-06 -2.491387914113238
1196.3210702341137 1.3925561288744647e-05 -2.4699526548425874
1196.3210702341137 2.110642679101546e-05 -2.448517395571937
1196.3210702341137 3.199018284775061e-05 -2.4270821363012853
1196.3210702341137 4.848626481239088e-05 -2.4056468770306347
1196.3210702341137 7.348872892180358e-05 -2.384211617759984
1196.3210702341137 0.00011138398264826183 -2.362776358489333
1196.3210702341137 0.00016882033167003662 -2.341341099218682
1196.3210702341137 0.00025587435201685784 -2.3199058399480315
1196.3210702341137 0.00038781871456107194 -2.2984705806773804
1196.3210702341137 0.0005878016072274876 -2.2770353214067303
1196.3210702341137 0.0008909078300934106 -2.2556000621360788
1196.3210702341137 0.0013503140378698722 -2.234164802865428
1196.3210702341137 0.0020466179993919773 -2.2127295435947776
1200.0 1e-24 -4.7574344789440675
1200.0 1.5156607589006075e-24 -4.735933301906579
1200.0 2.2972275360711464e-24 -4.7144321248690915
1200.0 3.4818176306889665e-24 -4.692930947831603
1200.0 5.277254352483554e-24 -4.671429770794115
1200.0 7.998527336796691e-24 -4.649928593756627
1200.0 1.2123054013376528e-23 -4.628427416719138
1200.0 1.8374437246107323e-23 -4.60692623968165
1200.0 2.7849413500806386e-23 -4.585425062644163
1200.0 4.221026320156903e-23 -4.563923885606674
1200.0 6.39764395574845e-23 -4.542422708569186
1200.0 9.6966578931455e-23 -4.520921531531697
1200.0 1.4696843861124476e-22 -4.499420354494209
1200.0 2.2275429519995655e-22 -4.477919177456721
1200.0 3.3761994411113333e-22 -4.456418000419234
1200.0 5.11717300711461e-22 -4.434916823381744
1200.0 7.75589832338897e-22 -4.413415646344257
1200.0 1.1755310738783675e-21 -4.391914469306769
1200.0 1.7817063195457326e-21 -4.37041329226928
1200.0 2.700462352420693e-21 -4.348912115231792
1200.0 4.092984818452434e-21 -4.327410938194304
1200.0 6.2035764761042814e-21 -4.305909761156816
1200.0 9.402517429670094e-21 -4.284408584119328
1200.0 1.4251026703029964e-20 -4.26290740708184
1200.0 2.1599721947827215e-20 -4.241406230044351
1200.0 3.2737850959485906e-20 -4.219905053006863
1200.0 4.961947603002898e-20 -4.198403875969375
1200.0 7.520629269592423e-20 -4.176902698931887
1200.0 1.1398722666160479e-19 -4.155401521894399
1200.0 1.7276596646690347e-19 -4.133900344856911
1200.0 2.618545958474238e-19 -4.112399167819422
1200.0 3.9688273546371497e-19 -4.090897990781935
1200.0 6.015395880274832e-19 -4.069396813744445
1200.0 9.11729948498494e-19 -4.047895636706958
1200.0 1.381873305653628e-18 -4.02639445966947
1200.0 2.0944511431514688e-18 -4.004893282631981
1200.0 3.1744774091092e-18 -3.9833921055944934
1200.0 4.8114308390032444e-18 -3.9618909285570054
1200.0 7.292496916841444e-18 -3.940389751519517
1200.0 1.1052951411260153e-17 -3.918888574482029
1200.0 1.6752524724082105e-17 -3.8973873974445405
1200.0 2.539114433680347e-17 -3.8758862204070526
1200.0 3.8484361094874406e-17 -3.854385043369564
1200.0 5.832923594286188e-17 -3.832883866332076
1200.0 8.840733401525062e-17 -3.8113826892945877
1200.0 1.339955269659337e-16 -3.7898815122570997
1200.0 2.0309176209047306e-16 -3.7683803352196117
1200.0 3.0781821425650803e-16 -3.7468791581821232
1200.0 4.665479882234468e-16 -3.7253779811446353
1200.0 7.071284778942982e-16 -3.7038768041071473
1200.0 1.0717668854455033e-15 -3.682375627069659
1200.0 1.6244350109588655e-15 -3.660874450032171
1200.0 2.4620924014946205e-15 -3.6393732729946824
1200.0 3.7316968377327554e-15 -3.6178720959571944
1200.0 5.655986461065002e-15 -3.596370918919706
1200.0 8.572556731909307e-15 -3.574869741882218
1200.0 1.2993087842004172e-14 -3.55336856484473
1200.0 1.969311337907422e-14 -3.5318673878072415
1200.0 2.9848079169243215e-14 -3.5103662107697535
1200.0 4.52395623253804e-14 -3.4888650337322655
1200.0 6.856782936641738e-14 -3.467363856694777
1200.0 1.039255682936711e-13 -3.445862679657289
1200.0 1.575159057091618e-13 -3.424361502619801
1200.0 2.387406771860647e-13 -3.4028603255823127
1200.0 3.618498759642743e-13 -3.3813591485448242
1200.0 5.484416576121004e-13 -3.3598579715073367
1200.0 8.312514989890632e-13 -3.3383567944698482
1200.0 1.259895277795026e-12 -3.31685561743236
1200.0 1.909573832878093e-12 -3.295354440394872
1200.0 2.8942661247167518e-12 -3.273853263357384
1200.0 4.386725591048494e-12 -3.2523520863198954
1200.0 6.648787838417249e-12 -3.2308509092824074
1200.0 1.0077306820944577e-11 -3.2093497322449194
1200.0 1.5273778503907126e-11 -3.187848555207431
1200.0 2.3149866718511562e-11 -3.166347378169943
1200.0 3.508734455902701e-11 -3.144846201132455
1200.0 5.318051128214197e-11 -3.1233450240949665
1200.0 8.060361408861329e-11 -3.101843847057478
1200.0 1.221677348996788e-10 -3.0803426700199905
1200.0 1.851648417912154e-10 -3.058841492982502
1200.0 2.806470846309833e-10 -3.0373403159450136
1200.0 4.253657732750374e-10 -3.0158391389075256
1200.0 6.44710210732387e-10 -2.994337961870037
1200.0 9.771619672696162e-10 -2.972836784832549
1200.0 1.481046048880671e-09 -2.951335607795061
1200.0 2.2447633784132237e-09 -2.9298344307575728
1200.0 3.402299765678064e-09 -2.9083332537200848
1200.0 5.1567322448549524e-09 -2.8868320766825963
1200.0 7.81585670768409e-09 -2.865330899645108
1200.0 1.1846187309026775e-08 -2.8438297226076203
1200.0 1.7954801246878268e-08 -2.822328545570132
1200.0 2.7213387683753087e-08 -2.8008273685326435
1200.0 4.124626382901331e-08 -2.779326191495156
1200.0 6.251534353689698e-08 -2.7578250144576675
1200.0 9.475205302806548e-08 -2.736323837420179
1200.0 1.4361196859990713e-07 -2.7148226603826915
1200.0 2.1766702531534547e-07 -2.693321483345203
1200.0 3.2990936877709424e-07 -2.6718203063077146
1200.0 5.00030684249107e-07 -2.6503191292702266
1200.0 7.578768863625914e-07 -2.6288179522327386
1200.0 1.1486842567375548e-06 -2.60731677519525
1200.0 1.7410156523040083e-06 -2.5858155981577626
1200.0 2.6387891048289292e-06 -2.564314421120274
1200.0 3.99950909720367e-06 -2.5428132440827858
1200.0 6.0618989934975476e-06 -2.5213120670452978
1200.0 9.187782428863321e-06 -2.4998108900078093
1200.0 1.3925561288744647e-05 -2.4783097129703213
1200.0 2.110642679101546e-05 -2.4568085359328333
1200.0 3.199018284775061e-05 -2.435307358895345
1200.0 4.848626481239088e-05 -2.413806181857857
1200.0 7.348872892180358e-05 -2.392305004820369
1200.0 0.00011138398264826183 -2.3708038277828805
1200.0 0.00016882033167003662 -2.349302650745392
1200.0 0.00025587435201685784 -2.327801473707904
1200.0 0.00038781871456107194 -2.306300296670416
1200.0 0.0005878016072274876 -2.284799119632928
1200.0 0.0008909078300934106 -2.2632979425954396
1200.0 0.0013503140378698722 -2.241796765557951
1200.0 0.0020466179993919773 -2.2202955885204636
['#4daf4a', '#FF0000', '#a65628', '#984ea3', '#ffff33', '#377eb8']
[14, 10, 6, 4, 2, 0]
[14, 10, 6, 4, 2, 0, -1]
[-1  0  2  4  6 10 14]
['#377eb8', '#ffff33', '#984ea3', '#a65628', '#FF0000', '#4daf4a']
Date: Fri Feb 28 11:10:11 2020
