
  ___ ___ ___ _ _ _  
 |   |   |_  | | | | 
 | | | | | . | | | | 
 |__ |  _|___|_____|  1.5.1
 |___|_|             

User:   siva@s73n43.grendel.cscaa.dk
Date:   Tue Jul  2 14:30:57 2019
Arch:   x86_64
Pid:    113401
Python: 3.6.3
gpaw:   /home/siva/gpaw-1.5.1/gpaw
_gpaw:  /home/siva/gpaw-1.5.1/build/bin.linux-x86_64-3.6/gpaw-python
ase:    /home/siva/env1.5/lib/python3.6/site-packages/ase (version 3.17.0)
numpy:  /home/siva/env1.5/lib/python3.6/site-packages/numpy (version 1.16.0)
scipy:  /home/siva/env1.5/lib/python3.6/site-packages/scipy (version 1.2.0)
units:  Angstrom and eV
cores:  20
Extra parameters: {'blacs': True}

Input parameters:
  basis: dzp
  kpts: [2 2 1]
  mode: {ecut: 500.0,
         gammacentered: False,
         name: pw}
  setups: {Ti: :d,3.5}
  xc: PBE

System changes: positions, numbers, cell, pbc, initial_charges, initial_magmoms 

Initialize ...

O-setup:
  name: Oxygen
  id: 32ecd46bf208036f09c70b0ec9a88b78
  Z: 8
  valence: 6
  core: 2
  charge: 0.0
  file: /home/wido/sw/gpaw/basis/gpaw-setups-0.9.20000/O.PBE.gz
  cutoffs: 0.67(comp), 1.17(filt), 0.83(core), lmax=2
  valence states:
                energy  radius
    2s(2.00)   -23.961   0.688
    2p(4.00)    -9.029   0.598
    *s           3.251   0.688
    *p          18.182   0.598
    *d           0.000   0.619

  LCAO basis set for O:
    Name: dzp
    File: /home/wido/sw/gpaw/basis/gpaw-setups-0.9.20000/O.dzp.basis.gz
    Number of radial functions: 5
    Number of spherical harmonics: 13
      l=0, rc=4.3438 Bohr: 2s-sz confined orbital
      l=1, rc=5.3906 Bohr: 2p-sz confined orbital
      l=0, rc=2.2969 Bohr: 2s-dz split-valence wave
      l=1, rc=2.8906 Bohr: 2p-dz split-valence wave
      l=2, rc=5.3906 Bohr: d-type Gaussian polarization

Ti-setup:
  name: Titanium
  id: d282db07e62ae71292040bf25b25ccdd
  Z: 22
  valence: 12
  core: 10
  charge: 0.0
  Hubbard U: 3.500000 eV (l=2, scale=True)
  file: /home/wido/sw/gpaw/basis/gpaw-setups-0.9.20000/Ti.PBE.gz
  cutoffs: 1.22(comp), 2.23(filt), 1.02(core), lmax=2
  valence states:
                energy  radius
    3s(2.00)   -62.623   1.270
    4s(2.00)    -4.466   1.270
    3p(6.00)   -38.862   1.058
    4p(0.00)    -1.466   1.058
    3d(2.00)    -4.258   1.058
    *d          22.953   1.058

  LCAO basis set for Ti:
    Name: dzp
    File: /home/wido/sw/gpaw/basis/gpaw-setups-0.9.20000/Ti.dzp.basis.gz
    Number of radial functions: 11
    Number of spherical harmonics: 29
      l=0, rc=3.4375 Bohr: 3s-sz confined orbital
      l=0, rc=9.9062 Bohr: 4s-sz confined orbital
      l=1, rc=3.8906 Bohr: 3p-sz confined orbital
      l=1, rc=13.1094 Bohr: 4p-sz confined orbital
      l=2, rc=6.6250 Bohr: 3d-sz confined orbital
      l=0, rc=2.1406 Bohr: 3s-dz split-valence wave
      l=0, rc=6.0156 Bohr: 4s-dz split-valence wave
      l=1, rc=2.3125 Bohr: 3p-dz split-valence wave
      l=1, rc=8.1094 Bohr: 4p-dz split-valence wave
      l=2, rc=3.8594 Bohr: 3d-dz split-valence wave
      l=1, rc=9.9062 Bohr: p-type Gaussian polarization

V-setup:
  name: Vanadium
  id: a8354638d66c808f8c867a10b63fd727
  Z: 23
  valence: 13
  core: 10
  charge: 0.0
  file: /home/wido/sw/gpaw/basis/gpaw-setups-0.9.20000/V.PBE.gz
  cutoffs: 1.19(comp), 2.14(filt), 0.96(core), lmax=2
  valence states:
                energy  radius
    3s(2.00)   -70.222   1.254
    4s(2.00)    -4.702   1.254
    3p(6.00)   -44.043   1.281
    4p(0.00)    -1.444   1.281
    3d(3.00)    -5.164   1.169
    *d          22.047   1.169

  LCAO basis set for V:
    Name: dzp
    File: /home/wido/sw/gpaw/basis/gpaw-setups-0.9.20000/V.dzp.basis.gz
    Number of radial functions: 11
    Number of spherical harmonics: 29
      l=0, rc=3.2656 Bohr: 3s-sz confined orbital
      l=0, rc=9.5312 Bohr: 4s-sz confined orbital
      l=1, rc=3.6719 Bohr: 3p-sz confined orbital
      l=1, rc=12.8750 Bohr: 4p-sz confined orbital
      l=2, rc=6.0938 Bohr: 3d-sz confined orbital
      l=0, rc=2.0625 Bohr: 3s-dz split-valence wave
      l=0, rc=5.7656 Bohr: 4s-dz split-valence wave
      l=1, rc=2.4062 Bohr: 3p-dz split-valence wave
      l=1, rc=7.8906 Bohr: 4p-dz split-valence wave
      l=2, rc=3.6562 Bohr: 3d-dz split-valence wave
      l=1, rc=9.5312 Bohr: p-type Gaussian polarization

H-setup:
  name: Hydrogen
  id: d65de229564ff8ea4db303e23b6d1ecf
  Z: 1
  valence: 1
  core: 0
  charge: 0.0
  file: /home/wido/sw/gpaw/basis/gpaw-setups-0.9.20000/H.PBE.gz
  cutoffs: 0.48(comp), 0.85(filt), 0.53(core), lmax=2
  valence states:
                energy  radius
    1s(1.00)    -6.494   0.476
    *s          20.717   0.476
    *p           0.000   0.476

  LCAO basis set for H:
    Name: dzp
    File: /home/wido/sw/gpaw/basis/gpaw-setups-0.9.20000/H.dzp.basis.gz
    Number of radial functions: 3
    Number of spherical harmonics: 5
      l=0, rc=6.4219 Bohr: 1s-sz confined orbital
      l=0, rc=3.6094 Bohr: 1s-dz split-valence wave
      l=1, rc=6.4219 Bohr: p-type Gaussian polarization

Reference energy: -1044901.093101

Spin-paired calculation

Occupation numbers:
  Fermi-Dirac: width=0.1000 eV

Convergence criteria:
  Maximum total energy change: 0.0005 eV / electron
  Maximum integral of absolute density change: 0.0001 electrons
  Maximum integral of absolute eigenstate change: 4e-08 eV^2
  Maximum number of iterations: 333

Symmetries present (total): 1

  ( 1  0  0)
  ( 0  1  0)
  ( 0  0  1)

4 k-points: 2 x 2 x 1 Monkhorst-Pack grid
2 k-points in the irreducible part of the Brillouin zone
       k-points in crystal coordinates                weights
   0:     0.25000000   -0.25000000    0.00000000          2/4
   1:     0.25000000    0.25000000    0.00000000          2/4

Wave functions: Plane wave expansion
  Cutoff energy: 500.000 eV
  Number of coefficients (min, max): 70729, 70729
  Pulay-stress correction: 0.000000 eV/Ang^3 (de/decut=0.000000)
  Using FFTW library
  ScaLapack parameters: grid=1x1, blocksize=None
  Wavefunction extrapolation:
    Improved wavefunction reuse through dual PAW basis 

Eigensolver
   Davidson(niter=2, smin=None, normalize=True) 

Densities:
  Coarse grid: 54*60*125 grid
  Fine grid: 108*120*250 grid
  Total Charge: 0.000000 

Density mixing:
  Method: separate
  Backend: pulay
  Linear mixing parameter: 0.05
  Mixing with 5 old densities
  Damping of long wave oscillations: 50 

Hamiltonian:
  XC and Coulomb potentials evaluated on a 108*120*250 grid
  Using the PBE Exchange-Correlation functional
 

XC parameters: PBE with 2 nearest neighbor stencil

Memory estimate:
  Process memory now: 268.85 MiB
  Calculator: 1308.98 MiB
    Density: 24.83 MiB
      Arrays: 8.03 MiB
      Localized functions: 13.71 MiB
      Mixer: 3.09 MiB
    Hamiltonian: 5.65 MiB
      Arrays: 5.25 MiB
      XC: 0.00 MiB
      Poisson: 0.00 MiB
      vbar: 0.40 MiB
    Wavefunctions: 1278.50 MiB
      Arrays psit_nG: 603.29 MiB
      Eigensolver: 656.39 MiB
      Projections: 1.45 MiB
      Projectors: 1.56 MiB
      PW-descriptor: 15.80 MiB

Total number of cores used: 20
Parallelization over k-points: 2
Domain decomposition: 1 x 2 x 5

Number of atoms: 119
Number of atomic orbitals: 2123
Number of bands in calculation: 559
Bands to converge: occupied states only
Number of valence electrons: 924

... initialized

Initializing position-dependent things.

Density initialized from atomic densities
Creating initial wave functions:
  559 bands from LCAO basis set

                                                
                                                
                                                
                                                
                                                
                                                
                   O                            
                      H                         
             O    V O       O                   
                                Oi              
             O    OH            O   V           
                      O  O     H    Ti          
           O   O  O          TOH   O            
               Ti     TO     O                  
         O     O    O      Tii   OTi            
             Tii    Ti     OO   O               
             OO   OO    O Ti   TiOi             
          O Ti   TiTi     O  O O     O          
                O      Ti     TiO               
            O   TiO   O  O  O  O   O Ti         
         Ti     O    O Oi    Ti     O           
         O    OTi          OTi    O             
             OTi    O O         O Ti            
                  O Ti     Oi     O             
             Oi     O    O      Ti              
           O     OTi    Ti     O                
          Ti          O      O                  
               O                                
                                                
                                                
                                                
                                                

Positions:
   0 O      8.476572    1.911173    6.000000    ( 0.0000,  0.0000,  0.0000)
   1 O      3.305699    0.000000    6.000000    ( 0.0000,  0.0000,  0.0000)
   2 Ti     1.412752    0.000000    6.752957    ( 0.0000,  0.0000,  0.0000)
   3 Ti     6.583625    1.911173    6.752957    ( 0.0000,  0.0000,  0.0000)
   4 Ti     9.522250    1.911173    7.640878    ( 0.0000,  0.0000,  0.0000)
   5 Ti     4.351376    0.000000    7.640878    ( 0.0000,  0.0000,  0.0000)
   6 O      9.861551    0.000000    7.505914    ( 0.0000,  0.0000,  0.0000)
   7 O      4.690678    1.911173    7.505914    ( 0.0000,  0.0000,  0.0000)
   8 O      7.629303    1.911173    8.393834    ( 0.0000,  0.0000,  0.0000)
   9 O      2.458430    0.000000    8.393834    ( 0.0000,  0.0000,  0.0000)
  10 O      6.244323    0.000000    6.887921    ( 0.0000,  0.0000,  0.0000)
  11 O      1.073450    1.911173    6.887921    ( 0.0000,  0.0000,  0.0000)
  12 O      9.807361    1.918700    9.580247    ( 0.0000,  0.0000,  0.0000)
  13 O      4.642490    0.002835    9.580935    ( 0.0000,  0.0000,  0.0000)
  14 Ti     2.751602    0.031323   10.356404    ( 0.0000,  0.0000,  0.0000)
  15 Ti     7.912255    1.914891   10.349138    ( 0.0000,  0.0000,  0.0000)
  16 Ti     0.478392    1.922769   11.120181    ( 0.0000,  0.0000,  0.0000)
  17 Ti     5.657221   11.462261   11.120540    ( 0.0000,  0.0000,  0.0000)
  18 O      0.916079    0.017951   11.061773    ( 0.0000,  0.0000,  0.0000)
  19 O      6.084661    1.913246   11.076089    ( 0.0000,  0.0000,  0.0000)
  20 O      9.050078    1.912539   11.954985    ( 0.0000,  0.0000,  0.0000)
  21 O      3.871602    0.009086   11.951930    ( 0.0000,  0.0000,  0.0000)
  22 O      7.569061   11.462374   10.451582    ( 0.0000,  0.0000,  0.0000)
  23 O      2.407139    1.922201   10.446582    ( 0.0000,  0.0000,  0.0000)
  24 O      0.970985    1.910637   13.072231    ( 0.0000,  0.0000,  0.0000)
  25 O      6.110004    0.014744   13.079065    ( 0.0000,  0.0000,  0.0000)
  26 Ti     4.223106    0.048202   13.973036    ( 0.0000,  0.0000,  0.0000)
  27 Ti     9.376756    1.918436   13.964785    ( 0.0000,  0.0000,  0.0000)
  28 Ti     1.834765    1.928939   14.609633    ( 0.0000,  0.0000,  0.0000)
  29 Ti     7.004596   11.464272   14.613545    ( 0.0000,  0.0000,  0.0000)
  30 O      2.387042    0.039834   14.818951    ( 0.0000,  0.0000,  0.0000)
  31 O      7.576292    1.895509   14.799006    ( 0.0000,  0.0000,  0.0000)
  32 O      0.208627    1.937777   15.455282    ( 0.0000,  0.0000,  0.0000)
  33 O      5.385616   11.470061   15.453087    ( 0.0000,  0.0000,  0.0000)
  34 O      9.049182    0.005475   13.964522    ( 0.0000,  0.0000,  0.0000)
  35 O      3.860018    1.930351   13.966589    ( 0.0000,  0.0000,  0.0000)
  36 O      8.476572    5.733518    6.000000    ( 0.0000,  0.0000,  0.0000)
  37 O      3.305699    3.822345    6.000000    ( 0.0000,  0.0000,  0.0000)
  38 Ti     1.412752    3.822345    6.752957    ( 0.0000,  0.0000,  0.0000)
  39 Ti     6.583625    5.733518    6.752957    ( 0.0000,  0.0000,  0.0000)
  40 Ti     9.522250    5.733518    7.640878    ( 0.0000,  0.0000,  0.0000)
  41 Ti     4.351376    3.822345    7.640878    ( 0.0000,  0.0000,  0.0000)
  42 O      9.861551    3.822345    7.505914    ( 0.0000,  0.0000,  0.0000)
  43 O      4.690678    5.733518    7.505914    ( 0.0000,  0.0000,  0.0000)
  44 O      7.629303    5.733518    8.393834    ( 0.0000,  0.0000,  0.0000)
  45 O      2.458430    3.822345    8.393834    ( 0.0000,  0.0000,  0.0000)
  46 O      6.244323    3.822345    6.887921    ( 0.0000,  0.0000,  0.0000)
  47 O      1.073450    5.733518    6.887921    ( 0.0000,  0.0000,  0.0000)
  48 O      9.814986    5.734963    9.605346    ( 0.0000,  0.0000,  0.0000)
  49 O      4.649675    3.825397    9.593771    ( 0.0000,  0.0000,  0.0000)
  50 Ti     2.779654    3.809207   10.344185    ( 0.0000,  0.0000,  0.0000)
  51 Ti     7.921799    5.731579   10.305502    ( 0.0000,  0.0000,  0.0000)
  52 Ti     0.558323    5.740582   11.142266    ( 0.0000,  0.0000,  0.0000)
  53 Ti     5.670204    3.831720   11.167567    ( 0.0000,  0.0000,  0.0000)
  54 O      0.914489    3.821691   11.072452    ( 0.0000,  0.0000,  0.0000)
  55 O      6.082993    5.734090   11.093133    ( 0.0000,  0.0000,  0.0000)
  56 O      9.031037    5.790476   11.967662    ( 0.0000,  0.0000,  0.0000)
  57 O      7.569422    3.832664   10.453895    ( 0.0000,  0.0000,  0.0000)
  58 O      2.387788    5.745930   10.451623    ( 0.0000,  0.0000,  0.0000)
  59 O      0.940514    5.625672   13.130695    ( 0.0000,  0.0000,  0.0000)
  60 O      6.120838    3.770688   13.130712    ( 0.0000,  0.0000,  0.0000)
  61 Ti     4.259408    3.811204   13.959635    ( 0.0000,  0.0000,  0.0000)
  62 Ti     9.341623    5.662776   13.806992    ( 0.0000,  0.0000,  0.0000)
  63 Ti     1.940193    5.702114   14.673534    ( 0.0000,  0.0000,  0.0000)
  64 Ti     7.019279    3.836834   14.736425    ( 0.0000,  0.0000,  0.0000)
  65 O      2.375737    3.815193   14.821164    ( 0.0000,  0.0000,  0.0000)
  66 O      7.528009    5.728770   14.615959    ( 0.0000,  0.0000,  0.0000)
  67 O      0.184440    5.943820   15.559316    ( 0.0000,  0.0000,  0.0000)
  68 O      5.371686    3.885978   15.480652    ( 0.0000,  0.0000,  0.0000)
  69 O      9.065156    3.820704   13.961657    ( 0.0000,  0.0000,  0.0000)
  70 O      3.815619    5.733907   13.975525    ( 0.0000,  0.0000,  0.0000)
  71 O      8.476572    9.555862    6.000000    ( 0.0000,  0.0000,  0.0000)
  72 O      3.305699    7.644690    6.000000    ( 0.0000,  0.0000,  0.0000)
  73 Ti     1.412752    7.644690    6.752957    ( 0.0000,  0.0000,  0.0000)
  74 Ti     6.583625    9.555862    6.752957    ( 0.0000,  0.0000,  0.0000)
  75 Ti     9.522250    9.555862    7.640878    ( 0.0000,  0.0000,  0.0000)
  76 Ti     4.351376    7.644690    7.640878    ( 0.0000,  0.0000,  0.0000)
  77 O      9.861551    7.644690    7.505914    ( 0.0000,  0.0000,  0.0000)
  78 O      4.690678    9.555862    7.505914    ( 0.0000,  0.0000,  0.0000)
  79 O      7.629303    9.555862    8.393834    ( 0.0000,  0.0000,  0.0000)
  80 O      2.458430    7.644690    8.393834    ( 0.0000,  0.0000,  0.0000)
  81 O      6.244323    7.644690    6.887921    ( 0.0000,  0.0000,  0.0000)
  82 O      1.073450    9.555862    6.887921    ( 0.0000,  0.0000,  0.0000)
  83 O      9.814187    9.565166    9.605298    ( 0.0000,  0.0000,  0.0000)
  84 O      4.641475    7.647204    9.600278    ( 0.0000,  0.0000,  0.0000)
  85 Ti     2.805201    7.652779   10.326199    ( 0.0000,  0.0000,  0.0000)
  86 Ti     7.924716    9.562503   10.310905    ( 0.0000,  0.0000,  0.0000)
  87 Ti     0.551972    9.545495   11.142773    ( 0.0000,  0.0000,  0.0000)
  88 Ti     5.707640    7.650346   11.186567    ( 0.0000,  0.0000,  0.0000)
  89 O      0.913758    7.652101   11.113445    ( 0.0000,  0.0000,  0.0000)
  90 O      6.079795    9.562491   11.077637    ( 0.0000,  0.0000,  0.0000)
  91 O      9.030088    9.505217   11.976881    ( 0.0000,  0.0000,  0.0000)
  92 O      3.887576    7.648292   11.965095    ( 0.0000,  0.0000,  0.0000)
  93 O      7.557218    7.647431   10.441795    ( 0.0000,  0.0000,  0.0000)
  94 O      2.387189    9.551076   10.452392    ( 0.0000,  0.0000,  0.0000)
  95 O      0.941731    9.732455   13.120110    ( 0.0000,  0.0000,  0.0000)
  96 O      6.161525    7.688607   13.115850    ( 0.0000,  0.0000,  0.0000)
  97 Ti     4.207319    7.658251   13.912405    ( 0.0000,  0.0000,  0.0000)
  98 Ti     9.367171    9.635631   13.829762    ( 0.0000,  0.0000,  0.0000)
  99 Ti     1.946531    9.596901   14.662216    ( 0.0000,  0.0000,  0.0000)
 100 Ti     6.993567    7.668704   14.772357    ( 0.0000,  0.0000,  0.0000)
 101 O      2.312719    7.661685   14.577426    ( 0.0000,  0.0000,  0.0000)
 102 O      7.554517    9.598130   14.768974    ( 0.0000,  0.0000,  0.0000)
 103 O      0.197757    9.336807   15.505852    ( 0.0000,  0.0000,  0.0000)
 104 O      5.347451    7.653178   15.463453    ( 0.0000,  0.0000,  0.0000)
 105 O      9.176912    7.654387   14.129305    ( 0.0000,  0.0000,  0.0000)
 106 O      3.822025    9.578279   13.971618    ( 0.0000,  0.0000,  0.0000)
 107 V      9.834262    7.643067   16.049903    ( 0.0000,  0.0000,  0.0000)
 108 V      2.310554    7.680048   17.627739    ( 0.0000,  0.0000,  0.0000)
 109 O      2.804922    7.653166   19.138067    ( 0.0000,  0.0000,  0.0000)
 110 O      8.261173    7.588005   16.579361    ( 0.0000,  0.0000,  0.0000)
 111 O      2.781183    9.278378   16.744584    ( 0.0000,  0.0000,  0.0000)
 112 O      0.584934    7.655620   17.587512    ( 0.0000,  0.0000,  0.0000)
 113 O      8.156716    3.838972   16.736432    ( 0.0000,  0.0000,  0.0000)
 114 O      2.794210    6.097268   16.738339    ( 0.0000,  0.0000,  0.0000)
 115 H      3.560982    9.803369   17.040844    ( 0.0000,  0.0000,  0.0000)
 116 H      3.565346    5.566253   17.046137    ( 0.0000,  0.0000,  0.0000)
 117 H      8.487258    4.738461   16.975909    ( 0.0000,  0.0000,  0.0000)
 118 H      8.978398    3.289355   16.647972    ( 0.0000,  0.0000,  0.0000)

Unit cell:
           periodic     x           y           z      points  spacing
  1. axis:    yes   10.341746    0.000000    0.000000    54     0.1915
  2. axis:    yes   -0.000000   11.467000    0.000000    60     0.1911
  3. axis:    no     0.000000    0.000000   23.497201   125     0.1880

  Lengths:  10.341746  11.467000  23.497201
  Angles:   90.000000  90.000000  90.000000

Effective grid spacing dv^(1/3) = 0.1902

                     log10-error:    total        iterations:
           time      wfs    density  energy       fermi  poisson
iter:   1  14:33:17  -0.02   +inf  -1047.322073    3             
iter:   2  14:33:56  -0.97  -0.93  -994.214059    32            
iter:   3  14:34:35  +0.23  -0.98  -877.623429    35            
iter:   4  14:35:14  -0.02  -1.25  -878.601109    5             
iter:   5  14:35:53  -0.71  -1.35  -909.085972    5             
iter:   6  14:36:32  -1.48  -1.23  -892.537016    30            
iter:   7  14:37:11  -1.07  -1.34  -890.294336    6             
iter:   8  14:37:50  -0.02  -1.48  -899.509273    34            
iter:   9  14:38:29  -0.79  -1.56  -883.830847    36            
iter:  10  14:39:08  -1.83  -1.72  -882.236467    4             
iter:  11  14:39:47  -1.42  -1.90  -881.937553    32            
iter:  12  14:40:26  -2.11  -2.20  -881.842065    4             
iter:  13  14:41:05  -2.53  -2.19  -881.744831    4             
iter:  14  14:41:44  -2.87  -2.20  -881.442549    4             
iter:  15  14:42:23  -3.03  -2.23  -881.518753    3             
iter:  16  14:43:03  -2.85  -2.33  -881.639506    3             
iter:  17  14:43:42  -2.82  -2.43  -881.555874    4             
iter:  18  14:44:21  -3.67  -2.53  -881.567180    3             
iter:  19  14:45:00  -3.24  -2.60  -881.575214    3             
iter:  20  14:45:39  -3.32  -2.77  -881.567656    3             
iter:  21  14:46:18  -3.62  -2.93  -881.565542    3             
iter:  22  14:46:57  -3.57  -3.01  -881.579537    3             
iter:  23  14:47:36  -4.22  -3.04  -881.576134    3             
iter:  24  14:48:15  -4.21  -3.20  -881.577539    3             
iter:  25  14:48:54  -4.22  -3.28  -881.572733    3             
iter:  26  14:49:33  -4.86  -3.28  -881.574601    3             
iter:  27  14:50:12  -4.72  -3.46  -881.574902    3             
iter:  28  14:50:51  -5.33  -3.64  -881.577123    3             
iter:  29  14:51:30  -5.14  -3.76  -881.576005    2             
iter:  30  14:52:09  -5.64  -3.97  -881.576534    2             
iter:  31  14:52:48  -6.11  -4.00  -881.575994    3             
iter:  32  14:53:27  -6.46  -4.03  -881.576510    2             
iter:  33  14:54:06  -5.69  -4.06  -881.576381    2             
iter:  34  14:54:45  -6.42  -4.13  -881.576490    3             
iter:  35  14:55:24  -5.82  -4.32  -881.576431    3             
iter:  36  14:56:03  -6.90  -4.50  -881.576576    2             
iter:  37  14:56:43  -6.83  -4.61  -881.576438    2             
iter:  38  14:57:22  -6.96  -4.65  -881.576544    2             
iter:  39  14:58:01  -6.91  -4.78  -881.576464    2             
iter:  40  14:58:40  -6.99  -4.77  -881.576524    2             
iter:  41  14:59:19  -7.85  -4.88  -881.576471    2             

Converged after 41 iterations.

Dipole moment: (-9.061140, -13.602013, -0.387477) |e|*Ang

Energy contributions relative to reference atoms: (reference = -1044901.093101)

Kinetic:       +633.533413
Potential:     -835.245479
External:        +0.000000
XC:            -690.125198
Entropy (-ST):   -0.380052
Local:          +10.450818
--------------------------
Free energy:   -881.766497
Extrapolated:  -881.576471

Fermi level: 1.01144

Showing all kpts
 Kpt  Band  Eigenvalues  Occupancy
  0   460      0.21617    0.99965
  0   461      0.97271    0.59563
  0   462      1.12861    0.23656
  0   463      1.21092    0.11975

  1   460      0.21627    0.99965
  1   461      0.97206    0.59720
  1   462      1.12782    0.23797
  1   463      1.21184    0.11878



Forces in eV/Ang:
  0 O    -1.90641    0.00054    1.39042
  1 O    -1.92371   -0.00571    1.38650
  2 Ti    3.60114    0.03204    1.41819
  3 Ti    3.56753    0.00098    1.39182
  4 Ti   -1.80582    0.00632   -2.19706
  5 Ti   -1.80414    0.02323   -2.20223
  6 O     0.85075   -0.04820   -0.11136
  7 O     0.85016    0.01800   -0.10597
  8 O    -0.56739    0.00163   -0.23885
  9 O    -0.53428    0.01047   -0.20650
 10 O    -0.30434   -0.04053   -0.85287
 11 O    -0.31656    0.00547   -0.85516
 12 O    -0.28617   -0.00327   -0.15219
 13 O    -0.35595    0.00377   -0.16861
 14 Ti    0.18601   -0.26434   -0.23931
 15 Ti    0.15917    0.09953   -0.14528
 16 Ti    0.29697   -0.01611    0.42911
 17 Ti    0.42427    0.05474    0.44306
 18 O     0.06324   -0.06174   -0.10545
 19 O    -0.10164   -0.06877   -0.01985
 20 O    -0.08088   -0.00351    0.18760
 21 O    -0.08278   -0.00150    0.22904
 22 O    -0.00830    0.03579    0.10048
 23 O     0.23059    0.18311    0.33809
 24 O    -0.54795   -0.00765   -0.48336
 25 O    -0.44119    0.02712   -0.43663
 26 Ti   -0.03420   -0.32532   -0.33245
 27 Ti    0.04002   -0.01412   -0.36226
 28 Ti    0.83117    0.00604    0.55451
 29 Ti    0.96423    0.05605    0.46317
 30 O     0.08534    0.15057    0.17017
 31 O    -0.01150   -0.04262    0.11332
 32 O    -0.18893    0.04973    0.39248
 33 O    -0.20381    0.01659    0.40003
 34 O    -0.32794    0.27152    0.25289
 35 O    -0.38084    0.22106   -0.16110
 36 O    -1.88335    0.00851    1.45225
 37 O    -1.85999    0.00516    1.33827
 38 Ti    3.61315   -0.03324    1.47756
 39 Ti    3.41096   -0.03001    1.21466
 40 Ti   -1.55781   -0.05802   -2.00808
 41 Ti   -1.95236   -0.03256   -1.98469
 42 O     0.83946    0.06742   -0.12154
 43 O     0.87063    0.02831   -0.10224
 44 O    -0.54587    0.01120   -0.40900
 45 O    -0.35523    0.02943   -0.39490
 46 O    -0.30438    0.04459   -0.90761
 47 O    -0.34438    0.02943   -0.88160
 48 O    -0.19817    0.00521   -0.15392
 49 O    -0.53752    0.01189    0.98895
 50 Ti   -0.40232    0.14806   -0.99645
 51 Ti    0.12646   -0.04679    0.16139
 52 Ti   -0.22702   -0.01556    0.49388
 53 Ti    1.08748   -0.06946    0.28239
 54 O     0.26646    0.04134    0.13516
 55 O    -0.03328    0.07635   -0.01511
 56 O    -0.01212    0.01713   -0.39211
 57 O     0.25505   -0.05138    0.04411
 58 O     0.45865   -0.27764    0.26692
 59 O    -0.32909   -0.03769   -0.42959
 60 O    -1.19501   -0.01780   -1.17185
 61 Ti    0.33235    0.21214    0.55275
 62 Ti    0.36071    0.49776    0.59650
 63 Ti    0.10979    0.34055    0.88835
 64 Ti    0.80920   -0.05660    0.47450
 65 O     0.05682   -0.17450   -0.00042
 66 O    -0.12713    0.13515    0.22218
 67 O    -0.10521   -0.31544   -0.45323
 68 O    -0.24443    0.02116    0.60569
 69 O    -0.21336   -0.25196    0.16925
 70 O    -0.08657   -0.32381   -0.32100
 71 O    -1.87711   -0.00565    1.45165
 72 O    -1.91761   -0.00018    1.41032
 73 Ti    3.54881    0.00607    1.32357
 74 Ti    3.41842    0.02957    1.23701
 75 Ti   -1.58774    0.04981   -2.01928
 76 Ti   -1.64809    0.00432   -2.01881
 77 O     0.84284    0.00749   -0.09230
 78 O     0.87449   -0.03447   -0.11153
 79 O    -0.53196   -0.00602   -0.30912
 80 O    -0.54687   -0.00244   -0.28121
 81 O    -0.30558   -0.00443   -0.88207
 82 O    -0.34365   -0.03747   -0.87050
 83 O    -0.24301    0.00008   -0.15012
 84 O    -0.11388   -0.00072   -0.08525
 85 Ti   -0.09590    0.08012    0.01252
 86 Ti    0.16545   -0.05789    0.10925
 87 Ti   -0.08476    0.14780    0.49588
 88 Ti    0.20065   -0.01893    0.24879
 89 O     0.29461   -0.07093   -0.05034
 90 O     0.10953   -0.00969   -0.10716
 91 O    -0.05345   -0.02441   -0.30450
 92 O    -0.03298    0.00229    0.03080
 93 O     0.03876    0.01751   -0.00092
 94 O     0.16437    0.11710    0.02822
 95 O    -0.33517   -0.04192   -0.37964
 96 O    -0.52819    0.02483   -0.25184
 97 Ti    0.13909    0.09583   -0.05285
 98 Ti    0.29005   -0.51231    0.55308
 99 Ti    0.23074   -0.19227    0.82376
100 Ti    1.12415   -0.08947    0.61208
101 O     0.08943   -0.07338   -0.00873
102 O     0.03326   -0.02295   -0.18424
103 O    -0.10576    0.29658   -0.07974
104 O    -0.46030   -0.01641    0.35557
105 O    -0.23580   -0.00221   -0.27247
106 O    -0.10687    0.13030    0.07304
107 V    -0.06447    0.05012    0.51260
108 V    -0.09829   -0.00707    0.36311
109 O     0.06788    0.03931   -0.07387
110 O    -0.15954   -0.05390   -0.03825
111 O     0.31247    0.32540   -0.14170
112 O    -0.04333    0.02710   -0.28613
113 O     0.42020    0.13089   -0.01865
114 O     0.35567   -0.43379   -0.18605
115 H    -0.33636   -0.22803   -0.14665
116 H    -0.31166    0.23276   -0.14018
117 H    -0.15300   -0.32427   -0.08074
118 H    -0.33901    0.19594    0.04064

System changes: positions 

Initializing position-dependent things.

Density initialized from wave functions
                                                
                                                
                                                
                                                
                                                
                                                
                   O                            
                      H                         
             O    V O       O                   
                                Oi              
             O    OH            O   V           
                      O  O     H    Ti          
           O   O  O          TOH   O            
               Ti     TO     O                  
         O     O    O      Tii   OTi            
             Tii    Ti     OO   O               
             OO   OO    O Ti   TiOi             
          O Ti   TiTi     O  O O     O          
                O      Ti     TiO               
            O   TiO   O  O  O  O   O Ti         
         Ti     O    O Oi    Ti     O           
         O    OTi          OTi    O             
             OTi    O O         O Ti            
                  O Ti     Oi     O             
             Oi     O    O      Ti              
           O     OTi    Ti     O                
          Ti          O      O                  
               O                                
                                                
                                                
                                                
                                                

Positions:
   0 O      8.476572    1.911173    6.000000    ( 0.0000,  0.0000,  0.0000)
   1 O      3.305699    0.000000    6.000000    ( 0.0000,  0.0000,  0.0000)
   2 Ti     1.412752    0.000000    6.752957    ( 0.0000,  0.0000,  0.0000)
   3 Ti     6.583625    1.911173    6.752957    ( 0.0000,  0.0000,  0.0000)
   4 Ti     9.522250    1.911173    7.640878    ( 0.0000,  0.0000,  0.0000)
   5 Ti     4.351376    0.000000    7.640878    ( 0.0000,  0.0000,  0.0000)
   6 O      9.861551    0.000000    7.505914    ( 0.0000,  0.0000,  0.0000)
   7 O      4.690678    1.911173    7.505914    ( 0.0000,  0.0000,  0.0000)
   8 O      7.629303    1.911173    8.393834    ( 0.0000,  0.0000,  0.0000)
   9 O      2.458430    0.000000    8.393834    ( 0.0000,  0.0000,  0.0000)
  10 O      6.244323    0.000000    6.887921    ( 0.0000,  0.0000,  0.0000)
  11 O      1.073450    1.911173    6.887921    ( 0.0000,  0.0000,  0.0000)
  12 O      9.803273    1.918653    9.578073    ( 0.0000,  0.0000,  0.0000)
  13 O      4.637405    0.002889    9.578526    ( 0.0000,  0.0000,  0.0000)
  14 Ti     2.754259    0.027546   10.352985    ( 0.0000,  0.0000,  0.0000)
  15 Ti     7.914529    1.916313   10.347062    ( 0.0000,  0.0000,  0.0000)
  16 Ti     0.482635    1.922539   11.126311    ( 0.0000,  0.0000,  0.0000)
  17 Ti     5.663282   11.463042   11.126869    ( 0.0000,  0.0000,  0.0000)
  18 O      0.916983    0.017069   11.060266    ( 0.0000,  0.0000,  0.0000)
  19 O      6.083209    1.912264   11.075805    ( 0.0000,  0.0000,  0.0000)
  20 O      9.048923    1.912489   11.957665    ( 0.0000,  0.0000,  0.0000)
  21 O      3.870420    0.009065   11.955202    ( 0.0000,  0.0000,  0.0000)
  22 O      7.568942   11.462885   10.453017    ( 0.0000,  0.0000,  0.0000)
  23 O      2.410434    1.924816   10.451412    ( 0.0000,  0.0000,  0.0000)
  24 O      0.963157    1.910528   13.065326    ( 0.0000,  0.0000,  0.0000)
  25 O      6.103701    0.015131   13.072827    ( 0.0000,  0.0000,  0.0000)
  26 Ti     4.222617    0.043554   13.968287    ( 0.0000,  0.0000,  0.0000)
  27 Ti     9.377328    1.918234   13.959610    ( 0.0000,  0.0000,  0.0000)
  28 Ti     1.846639    1.929025   14.617555    ( 0.0000,  0.0000,  0.0000)
  29 Ti     7.018370   11.465073   14.620162    ( 0.0000,  0.0000,  0.0000)
  30 O      2.388261    0.041985   14.821382    ( 0.0000,  0.0000,  0.0000)
  31 O      7.576128    1.894900   14.800625    ( 0.0000,  0.0000,  0.0000)
  32 O      0.205928    1.938488   15.460889    ( 0.0000,  0.0000,  0.0000)
  33 O      5.382705   11.470298   15.458801    ( 0.0000,  0.0000,  0.0000)
  34 O      9.044497    0.009353   13.968134    ( 0.0000,  0.0000,  0.0000)
  35 O      3.854577    1.933509   13.964287    ( 0.0000,  0.0000,  0.0000)
  36 O      8.476572    5.733518    6.000000    ( 0.0000,  0.0000,  0.0000)
  37 O      3.305699    3.822345    6.000000    ( 0.0000,  0.0000,  0.0000)
  38 Ti     1.412752    3.822345    6.752957    ( 0.0000,  0.0000,  0.0000)
  39 Ti     6.583625    5.733518    6.752957    ( 0.0000,  0.0000,  0.0000)
  40 Ti     9.522250    5.733518    7.640878    ( 0.0000,  0.0000,  0.0000)
  41 Ti     4.351376    3.822345    7.640878    ( 0.0000,  0.0000,  0.0000)
  42 O      9.861551    3.822345    7.505914    ( 0.0000,  0.0000,  0.0000)
  43 O      4.690678    5.733518    7.505914    ( 0.0000,  0.0000,  0.0000)
  44 O      7.629303    5.733518    8.393834    ( 0.0000,  0.0000,  0.0000)
  45 O      2.458430    3.822345    8.393834    ( 0.0000,  0.0000,  0.0000)
  46 O      6.244323    3.822345    6.887921    ( 0.0000,  0.0000,  0.0000)
  47 O      1.073450    5.733518    6.887921    ( 0.0000,  0.0000,  0.0000)
  48 O      9.812155    5.735038    9.603147    ( 0.0000,  0.0000,  0.0000)
  49 O      4.641996    3.825567    9.607899    ( 0.0000,  0.0000,  0.0000)
  50 Ti     2.773907    3.811322   10.329950    ( 0.0000,  0.0000,  0.0000)
  51 Ti     7.923606    5.730911   10.307807    ( 0.0000,  0.0000,  0.0000)
  52 Ti     0.555080    5.740359   11.149322    ( 0.0000,  0.0000,  0.0000)
  53 Ti     5.685739    3.830727   11.171601    ( 0.0000,  0.0000,  0.0000)
  54 O      0.918295    3.822282   11.074383    ( 0.0000,  0.0000,  0.0000)
  55 O      6.082518    5.735181   11.092918    ( 0.0000,  0.0000,  0.0000)
  56 O      9.030863    5.790721   11.962060    ( 0.0000,  0.0000,  0.0000)
  57 O      7.573066    3.831930   10.454525    ( 0.0000,  0.0000,  0.0000)
  58 O      2.394340    5.741963   10.455436    ( 0.0000,  0.0000,  0.0000)
  59 O      0.935813    5.625134   13.124558    ( 0.0000,  0.0000,  0.0000)
  60 O      6.103767    3.770434   13.113972    ( 0.0000,  0.0000,  0.0000)
  61 Ti     4.264156    3.814235   13.967532    ( 0.0000,  0.0000,  0.0000)
  62 Ti     9.346776    5.669887   13.815514    ( 0.0000,  0.0000,  0.0000)
  63 Ti     1.941762    5.706979   14.686225    ( 0.0000,  0.0000,  0.0000)
  64 Ti     7.030839    3.836026   14.743204    ( 0.0000,  0.0000,  0.0000)
  65 O      2.376548    3.812700   14.821158    ( 0.0000,  0.0000,  0.0000)
  66 O      7.526193    5.730701   14.619133    ( 0.0000,  0.0000,  0.0000)
  67 O      0.182937    5.939314   15.552842    ( 0.0000,  0.0000,  0.0000)
  68 O      5.368194    3.886280   15.489305    ( 0.0000,  0.0000,  0.0000)
  69 O      9.062108    3.817104   13.964075    ( 0.0000,  0.0000,  0.0000)
  70 O      3.814382    5.729281   13.970939    ( 0.0000,  0.0000,  0.0000)
  71 O      8.476572    9.555862    6.000000    ( 0.0000,  0.0000,  0.0000)
  72 O      3.305699    7.644690    6.000000    ( 0.0000,  0.0000,  0.0000)
  73 Ti     1.412752    7.644690    6.752957    ( 0.0000,  0.0000,  0.0000)
  74 Ti     6.583625    9.555862    6.752957    ( 0.0000,  0.0000,  0.0000)
  75 Ti     9.522250    9.555862    7.640878    ( 0.0000,  0.0000,  0.0000)
  76 Ti     4.351376    7.644690    7.640878    ( 0.0000,  0.0000,  0.0000)
  77 O      9.861551    7.644690    7.505914    ( 0.0000,  0.0000,  0.0000)
  78 O      4.690678    9.555862    7.505914    ( 0.0000,  0.0000,  0.0000)
  79 O      7.629303    9.555862    8.393834    ( 0.0000,  0.0000,  0.0000)
  80 O      2.458430    7.644690    8.393834    ( 0.0000,  0.0000,  0.0000)
  81 O      6.244323    7.644690    6.887921    ( 0.0000,  0.0000,  0.0000)
  82 O      1.073450    9.555862    6.887921    ( 0.0000,  0.0000,  0.0000)
  83 O      9.810716    9.565167    9.603154    ( 0.0000,  0.0000,  0.0000)
  84 O      4.639848    7.647194    9.599060    ( 0.0000,  0.0000,  0.0000)
  85 Ti     2.803831    7.653923   10.326378    ( 0.0000,  0.0000,  0.0000)
  86 Ti     7.927079    9.561676   10.312465    ( 0.0000,  0.0000,  0.0000)
  87 Ti     0.550761    9.547607   11.149857    ( 0.0000,  0.0000,  0.0000)
  88 Ti     5.710507    7.650076   11.190121    ( 0.0000,  0.0000,  0.0000)
  89 O      0.917967    7.651088   11.112726    ( 0.0000,  0.0000,  0.0000)
  90 O      6.081360    9.562352   11.076106    ( 0.0000,  0.0000,  0.0000)
  91 O      9.029324    9.504868   11.972531    ( 0.0000,  0.0000,  0.0000)
  92 O      3.887105    7.648325   11.965535    ( 0.0000,  0.0000,  0.0000)
  93 O      7.557772    7.647682   10.441782    ( 0.0000,  0.0000,  0.0000)
  94 O      2.389537    9.552749   10.452795    ( 0.0000,  0.0000,  0.0000)
  95 O      0.936943    9.731856   13.114687    ( 0.0000,  0.0000,  0.0000)
  96 O      6.153980    7.688961   13.112253    ( 0.0000,  0.0000,  0.0000)
  97 Ti     4.209306    7.659620   13.911651    ( 0.0000,  0.0000,  0.0000)
  98 Ti     9.371315    9.628312   13.837663    ( 0.0000,  0.0000,  0.0000)
  99 Ti     1.949828    9.594154   14.673984    ( 0.0000,  0.0000,  0.0000)
 100 Ti     7.009626    7.667425   14.781101    ( 0.0000,  0.0000,  0.0000)
 101 O      2.313996    7.660637   14.577301    ( 0.0000,  0.0000,  0.0000)
 102 O      7.554992    9.597802   14.766342    ( 0.0000,  0.0000,  0.0000)
 103 O      0.196246    9.341044   15.504713    ( 0.0000,  0.0000,  0.0000)
 104 O      5.340875    7.652943   15.468533    ( 0.0000,  0.0000,  0.0000)
 105 O      9.173544    7.654355   14.125413    ( 0.0000,  0.0000,  0.0000)
 106 O      3.820498    9.580140   13.972661    ( 0.0000,  0.0000,  0.0000)
 107 V      9.833341    7.643783   16.057226    ( 0.0000,  0.0000,  0.0000)
 108 V      2.309149    7.679947   17.632926    ( 0.0000,  0.0000,  0.0000)
 109 O      2.805891    7.653728   19.137012    ( 0.0000,  0.0000,  0.0000)
 110 O      8.258894    7.587236   16.578815    ( 0.0000,  0.0000,  0.0000)
 111 O      2.785647    9.283026   16.742560    ( 0.0000,  0.0000,  0.0000)
 112 O      0.584315    7.656007   17.583424    ( 0.0000,  0.0000,  0.0000)
 113 O      8.162719    3.840842   16.736166    ( 0.0000,  0.0000,  0.0000)
 114 O      2.799291    6.091071   16.735681    ( 0.0000,  0.0000,  0.0000)
 115 H      3.556177    9.800111   17.038749    ( 0.0000,  0.0000,  0.0000)
 116 H      3.560894    5.569578   17.044134    ( 0.0000,  0.0000,  0.0000)
 117 H      8.485072    4.733829   16.974755    ( 0.0000,  0.0000,  0.0000)
 118 H      8.973555    3.292154   16.648553    ( 0.0000,  0.0000,  0.0000)

Unit cell:
           periodic     x           y           z      points  spacing
  1. axis:    yes   10.341746    0.000000    0.000000    54     0.1915
  2. axis:    yes   -0.000000   11.467000    0.000000    60     0.1911
  3. axis:    no     0.000000    0.000000   23.497201   125     0.1880

  Lengths:  10.341746  11.467000  23.497201
  Angles:   90.000000  90.000000  90.000000

Effective grid spacing dv^(1/3) = 0.1902

                     log10-error:    total        iterations:
           time      wfs    density  energy       fermi  poisson
iter:   1  15:00:22  -2.46   +inf  -881.974258    4             
iter:   2  15:01:01  -3.37  -2.84  -881.880001    4             
iter:   3  15:01:40  -4.14  -2.93  -881.889773    3             
iter:   4  15:02:19  -3.44  -2.99  -881.862818    3             
iter:   5  15:02:58  -4.38  -3.18  -881.873294    3             
iter:   6  15:03:37  -4.69  -3.23  -881.863761    3             
iter:   7  15:04:16  -4.31  -3.35  -881.863032    2             
iter:   8  15:04:55  -5.15  -3.62  -881.861695    2             
iter:   9  15:05:34  -5.55  -3.75  -881.861543    2             
iter:  10  15:06:13  -5.69  -3.81  -881.861858    2             
iter:  11  15:06:52  -5.73  -3.92  -881.860626    3             
iter:  12  15:07:31  -6.56  -4.10  -881.861255    2             
iter:  13  15:08:10  -6.88  -4.14  -881.860776    2             
iter:  14  15:08:49  -6.74  -4.21  -881.861219    2             
iter:  15  15:09:28  -6.67  -4.30  -881.860931    2             
iter:  16  15:10:07  -7.11  -4.58  -881.860951    2             
iter:  17  15:10:46  -7.14  -4.65  -881.861019    2             
iter:  18  15:11:25  -7.38  -4.81  -881.860979    2             
iter:  19  15:12:04  -7.89  -4.93  -881.860950    2             

Converged after 19 iterations.

Dipole moment: (-9.139965, -13.795485, -0.352425) |e|*Ang

Energy contributions relative to reference atoms: (reference = -1044901.093101)

Kinetic:       +628.488655
Potential:     -831.070476
External:        +0.000000
XC:            -689.595241
Entropy (-ST):   -0.362557
Local:          +10.497390
--------------------------
Free energy:   -882.042229
Extrapolated:  -881.860950

Fermi level: 1.00545

Showing all kpts
 Kpt  Band  Eigenvalues  Occupancy
  0   460      0.34518    0.99865
  0   461      0.94800    0.63981
  0   462      1.13780    0.21023
  0   463      1.22124    0.10360

  1   460      0.34533    0.99864
  1   461      0.94732    0.64136
  1   462      1.13708    0.21143
  1   463      1.22212    0.10278



Forces in eV/Ang:
  0 O    -1.93178    0.00172    1.37625
  1 O    -1.94759   -0.00332    1.37059
  2 Ti    3.61090    0.02340    1.43615
  3 Ti    3.58665   -0.00918    1.40694
  4 Ti   -1.79543   -0.00081   -2.14110
  5 Ti   -1.78938    0.00975   -2.13920
  6 O     0.86332   -0.04381   -0.13117
  7 O     0.85516    0.04801   -0.11571
  8 O    -0.60493    0.00564   -0.28976
  9 O    -0.57529    0.01289   -0.27307
 10 O    -0.29916   -0.03501   -0.85216
 11 O    -0.30471    0.01661   -0.85632
 12 O    -0.21517   -0.00105   -0.03903
 13 O    -0.25992   -0.00079   -0.03682
 14 Ti    0.20668   -0.16021   -0.15684
 15 Ti    0.16940    0.02728   -0.10243
 16 Ti    0.29053    0.00645    0.32203
 17 Ti    0.29165    0.05181    0.30139
 18 O     0.05058   -0.05764   -0.11896
 19 O    -0.02092   -0.10283   -0.06697
 20 O    -0.12125   -0.00269    0.10364
 21 O    -0.09173   -0.01672    0.14415
 22 O     0.00895    0.04288    0.08954
 23 O     0.17562    0.05028    0.31804
 24 O    -0.31618   -0.01367    0.00192
 25 O    -0.17847    0.01589    0.01834
 26 Ti    0.09963   -0.17435   -0.24551
 27 Ti    0.25145   -0.00119   -0.27849
 28 Ti    0.34248    0.04148    0.19274
 29 Ti    0.34479    0.08276    0.17408
 30 O     0.05501    0.05977    0.18258
 31 O    -0.04785    0.00596    0.14380
 32 O    -0.02757    0.04579    0.20914
 33 O     0.03835    0.00859    0.16989
 34 O    -0.32343    0.06014    0.24640
 35 O    -0.37191    0.09238   -0.12973
 36 O    -1.90712    0.00702    1.43462
 37 O    -1.85032    0.00511    1.34438
 38 Ti    3.58575   -0.03192    1.47022
 39 Ti    3.44572   -0.01894    1.25093
 40 Ti   -1.57137   -0.04966   -1.94998
 41 Ti   -1.90940   -0.03214   -1.82350
 42 O     0.85774    0.06600   -0.14110
 43 O     0.87326    0.00032   -0.11128
 44 O    -0.57217    0.00503   -0.45515
 45 O    -0.40031    0.02757   -0.55437
 46 O    -0.31204    0.04367   -0.89546
 47 O    -0.33038    0.01859   -0.88602
 48 O    -0.14723    0.00288   -0.12114
 49 O    -0.48319    0.01107    0.68048
 50 Ti   -0.25017    0.14107   -0.71696
 51 Ti    0.11105    0.02377    0.13215
 52 Ti   -0.12221   -0.04556    0.37932
 53 Ti    0.74704   -0.05537    0.24679
 54 O     0.16237    0.03667    0.10062
 55 O     0.03690    0.10186   -0.04733
 56 O    -0.00277    0.01036   -0.17048
 57 O     0.28813   -0.04933    0.02489
 58 O     0.35357   -0.14243    0.26765
 59 O    -0.23060   -0.00787   -0.12871
 60 O    -0.80152    0.00688   -0.46127
 61 Ti    0.28861    0.16810    0.38819
 62 Ti    0.37717    0.29046    0.35927
 63 Ti    0.14691    0.15783    0.59463
 64 Ti    0.26340   -0.08199    0.14105
 65 O    -0.00615   -0.06949    0.06737
 66 O    -0.08957    0.09054    0.22360
 67 O    -0.12226   -0.24262   -0.33797
 68 O     0.11719    0.01523    0.49628
 69 O    -0.26346   -0.03490    0.17531
 70 O    -0.14133   -0.16649   -0.26507
 71 O    -1.89942   -0.00532    1.43405
 72 O    -1.93788   -0.00225    1.39595
 73 Ti    3.56153    0.01318    1.35054
 74 Ti    3.44418    0.02862    1.27685
 75 Ti   -1.59915    0.04891   -1.96542
 76 Ti   -1.64302    0.01709   -1.94516
 77 O     0.85643    0.00453   -0.11203
 78 O     0.88382   -0.03602   -0.13290
 79 O    -0.55775   -0.00436   -0.36457
 80 O    -0.57194   -0.00334   -0.32770
 81 O    -0.30146   -0.00890   -0.88810
 82 O    -0.33391   -0.03734   -0.87586
 83 O    -0.17062   -0.00171   -0.09012
 84 O    -0.09879    0.00437   -0.06669
 85 Ti   -0.03923   -0.00044    0.05350
 86 Ti    0.14398   -0.05459    0.09043
 87 Ti   -0.08683    0.13108    0.36558
 88 Ti    0.13488   -0.02743    0.18971
 89 O     0.26022   -0.03525   -0.05171
 90 O     0.10343    0.00223   -0.10623
 91 O    -0.02439   -0.01753   -0.12260
 92 O    -0.05692    0.01919    0.00280
 93 O     0.05110    0.00492   -0.00744
 94 O     0.12813    0.08635    0.03442
 95 O    -0.21263   -0.06502   -0.08569
 96 O    -0.34627    0.02363    0.07262
 97 Ti    0.26495    0.00054   -0.03921
 98 Ti    0.28271   -0.30706    0.32502
 99 Ti    0.18322   -0.08596    0.60714
100 Ti    0.43225   -0.07550    0.49653
101 O     0.01571   -0.04132    0.03906
102 O     0.05558   -0.05909   -0.13509
103 O    -0.08047    0.24112   -0.02419
104 O    -0.07245   -0.00911    0.14725
105 O    -0.25774    0.00034   -0.21586
106 O    -0.14582    0.07355    0.08493
107 V     0.03693    0.04697    0.34562
108 V     0.02110   -0.01308    0.00772
109 O     0.10094    0.03118    0.16853
110 O    -0.28334   -0.05340    0.01264
111 O    -0.16953   -0.03946   -0.26481
112 O    -0.09171    0.01452   -0.23720
113 O    -0.09133   -0.00109   -0.09840
114 O    -0.16243   -0.01905   -0.30567
115 H     0.09848    0.06749   -0.00052
116 H     0.14670   -0.08780    0.02217
117 H    -0.00456    0.02754    0.02283
118 H     0.03477   -0.03342    0.00564

System changes: positions 

Initializing position-dependent things.

Density initialized from wave functions
                                                
                                                
                                                
                                                
                                                
                                                
                   O                            
                      H                         
             O    V O       O                   
                                Oi              
             O    OH            O   V           
                      O  O     H    Ti          
           O   O  O          TOH   O            
               Ti     TO     O                  
         O     O    O      Tii   OTi            
             Tii    Ti     OO   O               
             OO   OO    O Ti   TiOi             
          O Ti   TiTi     O  O O     O          
                 O     Ti     TiO               
            O     O   O  O  O  O   O Ti         
         Ti     Oi   O Oi    Ti     O           
         O    OTi          OTi    O             
             OTi    O O         O Ti            
                  O Ti     Oi     O             
             Oi     O    O      Ti              
           O      Ti    Ti     O                
          Ti          O      O                  
               O                                
                                                
                                                
                                                
                                                

Positions:
   0 O      8.476572    1.911173    6.000000    ( 0.0000,  0.0000,  0.0000)
   1 O      3.305699    0.000000    6.000000    ( 0.0000,  0.0000,  0.0000)
   2 Ti     1.412752    0.000000    6.752957    ( 0.0000,  0.0000,  0.0000)
   3 Ti     6.583625    1.911173    6.752957    ( 0.0000,  0.0000,  0.0000)
   4 Ti     9.522250    1.911173    7.640878    ( 0.0000,  0.0000,  0.0000)
   5 Ti     4.351376    0.000000    7.640878    ( 0.0000,  0.0000,  0.0000)
   6 O      9.861551    0.000000    7.505914    ( 0.0000,  0.0000,  0.0000)
   7 O      4.690678    1.911173    7.505914    ( 0.0000,  0.0000,  0.0000)
   8 O      7.629303    1.911173    8.393834    ( 0.0000,  0.0000,  0.0000)
   9 O      2.458430    0.000000    8.393834    ( 0.0000,  0.0000,  0.0000)
  10 O      6.244323    0.000000    6.887921    ( 0.0000,  0.0000,  0.0000)
  11 O      1.073450    1.911173    6.887921    ( 0.0000,  0.0000,  0.0000)
  12 O      9.794616    1.918598    9.575812    ( 0.0000,  0.0000,  0.0000)
  13 O      4.626877    0.002891    9.576220    ( 0.0000,  0.0000,  0.0000)
  14 Ti     2.761961    0.020748   10.346463    ( 0.0000,  0.0000,  0.0000)
  15 Ti     7.920888    1.917847   10.342879    ( 0.0000,  0.0000,  0.0000)
  16 Ti     0.493707    1.922628   11.139272    ( 0.0000,  0.0000,  0.0000)
  17 Ti     5.675266   11.465029   11.139285    ( 0.0000,  0.0000,  0.0000)
  18 O      0.918990    0.014853   11.055844    ( 0.0000,  0.0000,  0.0000)
  19 O      6.081858    1.908595   11.073588    ( 0.0000,  0.0000,  0.0000)
  20 O      9.044599    1.912381   11.962177    ( 0.0000,  0.0000,  0.0000)
  21 O      3.866999    0.008535   11.961258    ( 0.0000,  0.0000,  0.0000)
  22 O      7.569163   11.464463   10.456491    ( 0.0000,  0.0000,  0.0000)
  23 O      2.417478    1.927641   10.463621    ( 0.0000,  0.0000,  0.0000)
  24 O      0.949558    1.910050   13.062054    ( 0.0000,  0.0000,  0.0000)
  25 O      6.095116    0.015812   13.070387    ( 0.0000,  0.0000,  0.0000)
  26 Ti     4.225476    0.035896   13.958369    ( 0.0000,  0.0000,  0.0000)
  27 Ti     9.385415    1.918100   13.948462    ( 0.0000,  0.0000,  0.0000)
  28 Ti     1.863006    1.930356   14.627364    ( 0.0000,  0.0000,  0.0000)
  29 Ti     7.035727   11.468030   14.628762    ( 0.0000,  0.0000,  0.0000)
  30 O      2.390558    0.044879   14.828226    ( 0.0000,  0.0000,  0.0000)
  31 O      7.574563    1.894792   14.805873    ( 0.0000,  0.0000,  0.0000)
  32 O      0.203769    1.940253   15.470091    ( 0.0000,  0.0000,  0.0000)
  33 O      5.382491   11.470679   15.466836    ( 0.0000,  0.0000,  0.0000)
  34 O      9.032190    0.013093   13.977531    ( 0.0000,  0.0000,  0.0000)
  35 O      3.840399    1.937903   13.959147    ( 0.0000,  0.0000,  0.0000)
  36 O      8.476572    5.733518    6.000000    ( 0.0000,  0.0000,  0.0000)
  37 O      3.305699    3.822345    6.000000    ( 0.0000,  0.0000,  0.0000)
  38 Ti     1.412752    3.822345    6.752957    ( 0.0000,  0.0000,  0.0000)
  39 Ti     6.583625    5.733518    6.752957    ( 0.0000,  0.0000,  0.0000)
  40 Ti     9.522250    5.733518    7.640878    ( 0.0000,  0.0000,  0.0000)
  41 Ti     4.351376    3.822345    7.640878    ( 0.0000,  0.0000,  0.0000)
  42 O      9.861551    3.822345    7.505914    ( 0.0000,  0.0000,  0.0000)
  43 O      4.690678    5.733518    7.505914    ( 0.0000,  0.0000,  0.0000)
  44 O      7.629303    5.733518    8.393834    ( 0.0000,  0.0000,  0.0000)
  45 O      2.458430    3.822345    8.393834    ( 0.0000,  0.0000,  0.0000)
  46 O      6.244323    3.822345    6.887921    ( 0.0000,  0.0000,  0.0000)
  47 O      1.073450    5.733518    6.887921    ( 0.0000,  0.0000,  0.0000)
  48 O      9.806216    5.735163    9.598323    ( 0.0000,  0.0000,  0.0000)
  49 O      4.623282    3.825992    9.635854    ( 0.0000,  0.0000,  0.0000)
  50 Ti     2.763362    3.816725   10.300810    ( 0.0000,  0.0000,  0.0000)
  51 Ti     7.927927    5.731327   10.313025    ( 0.0000,  0.0000,  0.0000)
  52 Ti     0.549719    5.738837   11.164509    ( 0.0000,  0.0000,  0.0000)
  53 Ti     5.716441    3.828529   11.181213    ( 0.0000,  0.0000,  0.0000)
  54 O      0.925176    3.823706   11.078440    ( 0.0000,  0.0000,  0.0000)
  55 O      6.083434    5.738871   11.091343    ( 0.0000,  0.0000,  0.0000)
  56 O      9.030694    5.791161   11.954062    ( 0.0000,  0.0000,  0.0000)
  57 O      7.583774    3.830044   10.455602    ( 0.0000,  0.0000,  0.0000)
  58 O      2.408485    5.735625   10.465590    ( 0.0000,  0.0000,  0.0000)
  59 O      0.926381    5.624630   13.117598    ( 0.0000,  0.0000,  0.0000)
  60 O      6.070631    3.770525   13.091565    ( 0.0000,  0.0000,  0.0000)
  61 Ti     4.275412    3.820919   13.983400    ( 0.0000,  0.0000,  0.0000)
  62 Ti     9.360979    5.682341   13.830786    ( 0.0000,  0.0000,  0.0000)
  63 Ti     1.947082    5.714229   14.710820    ( 0.0000,  0.0000,  0.0000)
  64 Ti     7.044599    3.833089   14.750856    ( 0.0000,  0.0000,  0.0000)
  65 O      2.376749    3.809339   14.823248    ( 0.0000,  0.0000,  0.0000)
  66 O      7.522534    5.734445   14.627610    ( 0.0000,  0.0000,  0.0000)
  67 O      0.178414    5.929603   15.539219    ( 0.0000,  0.0000,  0.0000)
  68 O      5.370150    3.886899   15.508896    ( 0.0000,  0.0000,  0.0000)
  69 O      9.052453    3.814283   13.970687    ( 0.0000,  0.0000,  0.0000)
  70 O      3.809395    5.721877   13.960493    ( 0.0000,  0.0000,  0.0000)
  71 O      8.476572    9.555862    6.000000    ( 0.0000,  0.0000,  0.0000)
  72 O      3.305699    7.644690    6.000000    ( 0.0000,  0.0000,  0.0000)
  73 Ti     1.412752    7.644690    6.752957    ( 0.0000,  0.0000,  0.0000)
  74 Ti     6.583625    9.555862    6.752957    ( 0.0000,  0.0000,  0.0000)
  75 Ti     9.522250    9.555862    7.640878    ( 0.0000,  0.0000,  0.0000)
  76 Ti     4.351376    7.644690    7.640878    ( 0.0000,  0.0000,  0.0000)
  77 O      9.861551    7.644690    7.505914    ( 0.0000,  0.0000,  0.0000)
  78 O      4.690678    9.555862    7.505914    ( 0.0000,  0.0000,  0.0000)
  79 O      7.629303    9.555862    8.393834    ( 0.0000,  0.0000,  0.0000)
  80 O      2.458430    7.644690    8.393834    ( 0.0000,  0.0000,  0.0000)
  81 O      6.244323    7.644690    6.887921    ( 0.0000,  0.0000,  0.0000)
  82 O      1.073450    9.555862    6.887921    ( 0.0000,  0.0000,  0.0000)
  83 O      9.803741    9.565114    9.599319    ( 0.0000,  0.0000,  0.0000)
  84 O      4.635995    7.647325    9.596401    ( 0.0000,  0.0000,  0.0000)
  85 Ti     2.801951    7.654462   10.328126    ( 0.0000,  0.0000,  0.0000)
  86 Ti     7.932692    9.559582   10.316027    ( 0.0000,  0.0000,  0.0000)
  87 Ti     0.547480    9.552697   11.164632    ( 0.0000,  0.0000,  0.0000)
  88 Ti     5.716080    7.649094   11.197729    ( 0.0000,  0.0000,  0.0000)
  89 O      0.928081    7.649504   11.110773    ( 0.0000,  0.0000,  0.0000)
  90 O      6.085327    9.562355   11.072068    ( 0.0000,  0.0000,  0.0000)
  91 O      9.028198    9.504156   11.966624    ( 0.0000,  0.0000,  0.0000)
  92 O      3.885109    7.648937   11.965835    ( 0.0000,  0.0000,  0.0000)
  93 O      7.559626    7.647955   10.441544    ( 0.0000,  0.0000,  0.0000)
  94 O      2.394650    9.556238   10.454059    ( 0.0000,  0.0000,  0.0000)
  95 O      0.928027    9.729548   13.109408    ( 0.0000,  0.0000,  0.0000)
  96 O      6.139583    7.689866   13.112772    ( 0.0000,  0.0000,  0.0000)
  97 Ti     4.218495    7.660297   13.910068    ( 0.0000,  0.0000,  0.0000)
  98 Ti     9.382096    9.615243   13.851572    ( 0.0000,  0.0000,  0.0000)
  99 Ti     1.957110    9.590159   14.698522    ( 0.0000,  0.0000,  0.0000)
 100 Ti     7.030802    7.664463   14.800744    ( 0.0000,  0.0000,  0.0000)
 101 O      2.315101    7.658848   14.578455    ( 0.0000,  0.0000,  0.0000)
 102 O      7.556948    9.595809   14.760876    ( 0.0000,  0.0000,  0.0000)
 103 O      0.193018    9.350578   15.503412    ( 0.0000,  0.0000,  0.0000)
 104 O      5.335451    7.652547   15.475558    ( 0.0000,  0.0000,  0.0000)
 105 O      9.163912    7.654351   14.116830    ( 0.0000,  0.0000,  0.0000)
 106 O      3.815232    9.583323   13.975803    ( 0.0000,  0.0000,  0.0000)
 107 V      9.834044    7.645588   16.071495    ( 0.0000,  0.0000,  0.0000)
 108 V      2.309127    7.679492   17.635669    ( 0.0000,  0.0000,  0.0000)
 109 O      2.809495    7.654967   19.141738    ( 0.0000,  0.0000,  0.0000)
 110 O      8.248993    7.585205   16.578944    ( 0.0000,  0.0000,  0.0000)
 111 O      2.782534    9.284043   16.733357    ( 0.0000,  0.0000,  0.0000)
 112 O      0.581168    7.656645   17.574084    ( 0.0000,  0.0000,  0.0000)
 113 O      8.162778    3.841711   16.732981    ( 0.0000,  0.0000,  0.0000)
 114 O      2.796697    6.087489   16.724904    ( 0.0000,  0.0000,  0.0000)
 115 H      3.556918    9.800636   17.037722    ( 0.0000,  0.0000,  0.0000)
 116 H      3.563303    5.568455   17.043856    ( 0.0000,  0.0000,  0.0000)
 117 H      8.483876    4.732449   16.974908    ( 0.0000,  0.0000,  0.0000)
 118 H      8.972298    3.292467   16.649008    ( 0.0000,  0.0000,  0.0000)

Unit cell:
           periodic     x           y           z      points  spacing
  1. axis:    yes   10.341746    0.000000    0.000000    54     0.1915
  2. axis:    yes   -0.000000   11.467000    0.000000    60     0.1911
  3. axis:    no     0.000000    0.000000   23.497201   125     0.1880

  Lengths:  10.341746  11.467000  23.497201
  Angles:   90.000000  90.000000  90.000000

Effective grid spacing dv^(1/3) = 0.1902

                     log10-error:    total        iterations:
           time      wfs    density  energy       fermi  poisson
iter:   1  15:13:07  -2.00   +inf  -882.515379    4             
iter:   2  15:13:46  -2.86  -2.60  -882.183623    5             
iter:   3  15:14:25  -3.49  -2.76  -882.157037    3             
iter:   4  15:15:04  -3.40  -2.82  -882.135240    3             
iter:   5  15:15:43  -3.66  -2.96  -882.121714    3             
iter:   6  15:16:22  -3.99  -3.09  -882.146567    3             
iter:   7  15:17:01  -4.46  -3.15  -882.124955    3             
iter:   8  15:17:40  -4.79  -3.30  -882.119691    2             
iter:   9  15:18:19  -4.85  -3.47  -882.121528    3             
iter:  10  15:18:58  -5.45  -3.65  -882.120865    2             
iter:  11  15:19:37  -5.66  -3.73  -882.121684    2             
iter:  12  15:20:16  -5.75  -3.82  -882.120967    2             
iter:  13  15:20:55  -6.17  -3.93  -882.121249    2             
iter:  14  15:21:34  -6.24  -3.99  -882.120670    3             
iter:  15  15:22:13  -6.26  -4.12  -882.120895    2             
iter:  16  15:22:52  -6.55  -4.34  -882.120788    2             
iter:  17  15:23:31  -6.58  -4.42  -882.120787    2             
iter:  18  15:24:10  -6.89  -4.54  -882.120713    2             
iter:  19  15:24:49  -7.09  -4.70  -882.121001    2             
iter:  20  15:25:28  -7.70  -4.78  -882.120975    2             

Converged after 20 iterations.

Dipole moment: (-9.155830, -13.821001, -0.330093) |e|*Ang

Energy contributions relative to reference atoms: (reference = -1044901.093101)

Kinetic:       +621.054445
Potential:     -825.025132
External:        +0.000000
XC:            -688.533429
Entropy (-ST):   -0.348317
Local:          +10.557300
--------------------------
Free energy:   -882.295134
Extrapolated:  -882.120975

Fermi level: 0.98890

Showing all kpts
 Kpt  Band  Eigenvalues  Occupancy
  0   460      0.54341    0.98851
  0   461      0.90294    0.70258
  0   462      1.14609    0.17195
  0   463      1.22979    0.08250

  1   460      0.54365    0.98848
  1   461      0.90224    0.70405
  1   462      1.14556    0.17270
  1   463      1.23047    0.08198



Forces in eV/Ang:
  0 O    -1.97321    0.00475    1.35270
  1 O    -1.97681    0.00312    1.34649
  2 Ti    3.62194   -0.00383    1.46423
  3 Ti    3.62768   -0.03299    1.42589
  4 Ti   -1.77899   -0.01776   -2.04807
  5 Ti   -1.77328   -0.02970   -2.04612
  6 O     0.88393   -0.02657   -0.16303
  7 O     0.85762    0.11203   -0.12090
  8 O    -0.67235    0.01199   -0.38382
  9 O    -0.64138    0.02501   -0.39222
 10 O    -0.29378   -0.01665   -0.86130
 11 O    -0.28196    0.04668   -0.86003
 12 O    -0.03565    0.00470    0.16726
 13 O    -0.05181   -0.00479    0.16485
 14 Ti    0.18823   -0.04789   -0.02332
 15 Ti    0.19976   -0.10260   -0.04400
 16 Ti    0.20636    0.00086    0.06650
 17 Ti    0.06005    0.01490    0.05238
 18 O     0.00578   -0.00745   -0.10581
 19 O     0.07815   -0.08966   -0.10607
 20 O    -0.09886   -0.00192   -0.00832
 21 O    -0.03521   -0.03944    0.03972
 22 O     0.03320    0.03198    0.07942
 23 O     0.07248   -0.07945    0.29159
 24 O    -0.08245   -0.02233    0.40132
 25 O     0.06555    0.00698    0.35544
 26 Ti    0.17458    0.06449   -0.05277
 27 Ti    0.31259    0.01943   -0.04168
 28 Ti   -0.13936    0.05387   -0.05081
 29 Ti   -0.22907    0.09160   -0.01589
 30 O     0.01989   -0.06835    0.17956
 31 O    -0.05764    0.05623    0.12452
 32 O     0.16248    0.03998   -0.04076
 33 O     0.22995   -0.00474   -0.09656
 34 O    -0.22594   -0.16579    0.21141
 35 O    -0.28747   -0.05248   -0.08991
 36 O    -1.95147    0.00241    1.39919
 37 O    -1.82157    0.00401    1.37120
 38 Ti    3.49067   -0.02414    1.41378
 39 Ti    3.52003    0.01254    1.31269
 40 Ti   -1.60102   -0.02421   -1.85234
 41 Ti   -1.80670   -0.02442   -1.59980
 42 O     0.89619    0.05449   -0.17350
 43 O     0.87143   -0.07110   -0.11923
 44 O    -0.62527   -0.00694   -0.52849
 45 O    -0.49639    0.02133   -0.82362
 46 O    -0.33895    0.03601   -0.86407
 47 O    -0.30209   -0.01685   -0.89362
 48 O    -0.02164   -0.00290   -0.00751
 49 O    -0.29236    0.00871    0.22374
 50 Ti   -0.04239    0.10096   -0.20538
 51 Ti    0.12347    0.13669    0.04260
 52 Ti    0.01915   -0.03287    0.14321
 53 Ti    0.16561   -0.02930    0.06748
 54 O    -0.00728    0.00527    0.04719
 55 O     0.12567    0.07145   -0.06859
 56 O     0.02587    0.00426    0.12134
 57 O     0.27819   -0.02860    0.02231
 58 O     0.16915    0.02530    0.26993
 59 O    -0.06223    0.02608    0.28094
 60 O    -0.22832    0.02755    0.36355
 61 Ti    0.10980    0.03056    0.21432
 62 Ti    0.21322   -0.05097    0.03704
 63 Ti    0.21094   -0.09274    0.13343
 64 Ti   -0.20560   -0.08830   -0.12636
 65 O    -0.08075    0.10421    0.16647
 66 O    -0.01759    0.03262    0.17537
 67 O    -0.13286   -0.07897   -0.08850
 68 O     0.41307    0.01521    0.39272
 69 O    -0.26413    0.20224    0.14420
 70 O    -0.17364    0.06772   -0.16083
 71 O    -1.93816   -0.00367    1.40013
 72 O    -1.96758   -0.00705    1.36755
 73 Ti    3.58688    0.03216    1.40160
 74 Ti    3.49546    0.02094    1.34500
 75 Ti   -1.61963    0.04092   -1.87655
 76 Ti   -1.64757    0.04863   -1.82062
 77 O     0.87778   -0.00123   -0.14652
 78 O     0.89828   -0.02780   -0.16625
 79 O    -0.60586    0.00032   -0.45271
 80 O    -0.61633   -0.01215   -0.40887
 81 O    -0.29532   -0.01968   -0.90337
 82 O    -0.31778   -0.03133   -0.88747
 83 O    -0.03424   -0.00466    0.03080
 84 O    -0.02484    0.00830    0.00614
 85 Ti    0.03883   -0.06453    0.08746
 86 Ti    0.10790   -0.03793    0.03631
 87 Ti   -0.03958    0.08062    0.11281
 88 Ti   -0.00400   -0.00139    0.06407
 89 O     0.15933    0.00252   -0.03676
 90 O     0.07271    0.01911   -0.07027
 91 O     0.02704   -0.00716    0.11448
 92 O    -0.04032    0.04242    0.00105
 93 O     0.05988   -0.00696   -0.00240
 94 O     0.05516    0.02718    0.05514
 95 O    -0.01969   -0.08376    0.31784
 96 O    -0.13930    0.01748    0.35777
 97 Ti    0.32928   -0.09258   -0.05526
 98 Ti    0.13040    0.03072    0.00885
 99 Ti    0.14177    0.08601    0.25145
100 Ti   -0.24202   -0.04957    0.33999
101 O    -0.06904   -0.00674    0.09964
102 O     0.06041   -0.10316   -0.06167
103 O    -0.04794    0.10694    0.10769
104 O     0.23690   -0.00678   -0.01017
105 O    -0.21445    0.00307   -0.07806
106 O    -0.14441   -0.04024    0.09859
107 V    -0.07785    0.02974    0.06423
108 V     0.17147   -0.01347    0.10208
109 O     0.02213    0.02360    0.04364
110 O    -0.24261   -0.04062    0.03906
111 O     0.02161    0.09677   -0.12035
112 O    -0.07500   -0.00591   -0.16444
113 O    -0.15320   -0.03706   -0.08846
114 O     0.04387   -0.15266   -0.12166
115 H    -0.08935   -0.04870   -0.11086
116 H    -0.06791    0.04414   -0.10625
117 H     0.00773    0.09694    0.04090
118 H     0.09934   -0.08755   -0.01651

System changes: positions 

Initializing position-dependent things.

Density initialized from wave functions
                                                
                                                
                                                
                                                
                                                
                                                
                   O                            
                      H                         
             O    V O       O                   
                                Oi              
             O    OH            O   V           
                      O  O     H    Ti          
           O   O  O          TOH   O            
               Ti     TO     O                  
         O     O    O      Tii   OTi            
             Tii    Ti     OO   O               
             OO   OO    O Ti   TiOi             
          O Ti   TiTi     O  O O     O          
                 O     OTi    TiO               
            O     O   O  O  O  O   O Ti         
         Ti     Oi   O Oi    Ti     O           
         O    OTi          OTi    O             
             OTi    O O         O Ti            
                  O Ti     Oi     O             
             Oi     O    O      Ti              
           O      Ti    Ti     O                
          Ti          O      O                  
               O                                
                                                
                                                
                                                
                                                

Positions:
   0 O      8.476572    1.911173    6.000000    ( 0.0000,  0.0000,  0.0000)
   1 O      3.305699    0.000000    6.000000    ( 0.0000,  0.0000,  0.0000)
   2 Ti     1.412752    0.000000    6.752957    ( 0.0000,  0.0000,  0.0000)
   3 Ti     6.583625    1.911173    6.752957    ( 0.0000,  0.0000,  0.0000)
   4 Ti     9.522250    1.911173    7.640878    ( 0.0000,  0.0000,  0.0000)
   5 Ti     4.351376    0.000000    7.640878    ( 0.0000,  0.0000,  0.0000)
   6 O      9.861551    0.000000    7.505914    ( 0.0000,  0.0000,  0.0000)
   7 O      4.690678    1.911173    7.505914    ( 0.0000,  0.0000,  0.0000)
   8 O      7.629303    1.911173    8.393834    ( 0.0000,  0.0000,  0.0000)
   9 O      2.458430    0.000000    8.393834    ( 0.0000,  0.0000,  0.0000)
  10 O      6.244323    0.000000    6.887921    ( 0.0000,  0.0000,  0.0000)
  11 O      1.073450    1.911173    6.887921    ( 0.0000,  0.0000,  0.0000)
  12 O      9.790425    1.918661    9.577858    ( 0.0000,  0.0000,  0.0000)
  13 O      4.621583    0.002813    9.578142    ( 0.0000,  0.0000,  0.0000)
  14 Ti     2.768475    0.016909   10.343280    ( 0.0000,  0.0000,  0.0000)
  15 Ti     7.927156    1.916656   10.340302    ( 0.0000,  0.0000,  0.0000)
  16 Ti     0.501933    1.922604   11.145807    ( 0.0000,  0.0000,  0.0000)
  17 Ti     5.681391   11.466079   11.145452    ( 0.0000,  0.0000,  0.0000)
  18 O      0.919901    0.013858   11.052154    ( 0.0000,  0.0000,  0.0000)
  19 O      6.082612    1.905572   11.070834    ( 0.0000,  0.0000,  0.0000)
  20 O      9.041170    1.912300   11.963990    ( 0.0000,  0.0000,  0.0000)
  21 O      3.865052    0.007614   11.964595    ( 0.0000,  0.0000,  0.0000)
  22 O      7.569839   11.465660   10.459388    ( 0.0000,  0.0000,  0.0000)
  23 O      2.421730    1.927587   10.473987    ( 0.0000,  0.0000,  0.0000)
  24 O      0.942062    1.909453   13.067074    ( 0.0000,  0.0000,  0.0000)
  25 O      6.092301    0.016241   13.074924    ( 0.0000,  0.0000,  0.0000)
  26 Ti     4.229527    0.033776   13.953315    ( 0.0000,  0.0000,  0.0000)
  27 Ti     9.393879    1.918386   13.943172    ( 0.0000,  0.0000,  0.0000)
  28 Ti     1.868052    1.931794   14.631253    ( 0.0000,  0.0000,  0.0000)
  29 Ti     7.039821   11.470847   14.632640    ( 0.0000,  0.0000,  0.0000)
  30 O      2.391912    0.044932   14.834275    ( 0.0000,  0.0000,  0.0000)
  31 O      7.572965    1.895691   14.810184    ( 0.0000,  0.0000,  0.0000)
  32 O      0.205602    1.941712   15.473363    ( 0.0000,  0.0000,  0.0000)
  33 O      5.386111   11.470757   15.468731    ( 0.0000,  0.0000,  0.0000)
  34 O      9.023121    0.011955   13.985226    ( 0.0000,  0.0000,  0.0000)
  35 O      3.829409    1.938955   13.955350    ( 0.0000,  0.0000,  0.0000)
  36 O      8.476572    5.733518    6.000000    ( 0.0000,  0.0000,  0.0000)
  37 O      3.305699    3.822345    6.000000    ( 0.0000,  0.0000,  0.0000)
  38 Ti     1.412752    3.822345    6.752957    ( 0.0000,  0.0000,  0.0000)
  39 Ti     6.583625    5.733518    6.752957    ( 0.0000,  0.0000,  0.0000)
  40 Ti     9.522250    5.733518    7.640878    ( 0.0000,  0.0000,  0.0000)
  41 Ti     4.351376    3.822345    7.640878    ( 0.0000,  0.0000,  0.0000)
  42 O      9.861551    3.822345    7.505914    ( 0.0000,  0.0000,  0.0000)
  43 O      4.690678    5.733518    7.505914    ( 0.0000,  0.0000,  0.0000)
  44 O      7.629303    5.733518    8.393834    ( 0.0000,  0.0000,  0.0000)
  45 O      2.458430    3.822345    8.393834    ( 0.0000,  0.0000,  0.0000)
  46 O      6.244323    3.822345    6.887921    ( 0.0000,  0.0000,  0.0000)
  47 O      1.073450    5.733518    6.887921    ( 0.0000,  0.0000,  0.0000)
  48 O      9.803388    5.735161    9.596251    ( 0.0000,  0.0000,  0.0000)
  49 O      4.610337    3.826326    9.651773    ( 0.0000,  0.0000,  0.0000)
  50 Ti     2.758062    3.820757   10.284899    ( 0.0000,  0.0000,  0.0000)
  51 Ti     7.932019    5.733924   10.315920    ( 0.0000,  0.0000,  0.0000)
  52 Ti     0.547729    5.737719   11.173407    ( 0.0000,  0.0000,  0.0000)
  53 Ti     5.732363    3.827081   11.186271    ( 0.0000,  0.0000,  0.0000)
  54 O      0.927967    3.824361   11.081005    ( 0.0000,  0.0000,  0.0000)
  55 O      6.086006    5.741575   11.089515    ( 0.0000,  0.0000,  0.0000)
  56 O      9.031105    5.791432   11.952693    ( 0.0000,  0.0000,  0.0000)
  57 O      7.593138    3.828767   10.456507    ( 0.0000,  0.0000,  0.0000)
  58 O      2.417466    5.733288   10.474690    ( 0.0000,  0.0000,  0.0000)
  59 O      0.921288    5.624852   13.119481    ( 0.0000,  0.0000,  0.0000)
  60 O      6.052393    3.771016   13.087898    ( 0.0000,  0.0000,  0.0000)
  61 Ti     4.281943    3.824179   13.994108    ( 0.0000,  0.0000,  0.0000)
  62 Ti     9.370444    5.686717   13.838042    ( 0.0000,  0.0000,  0.0000)
  63 Ti     1.953088    5.715747   14.723658    ( 0.0000,  0.0000,  0.0000)
  64 Ti     7.047554    3.830339   14.752363    ( 0.0000,  0.0000,  0.0000)
  65 O      2.375453    3.809765   14.827067    ( 0.0000,  0.0000,  0.0000)
  66 O      7.520689    5.736639   14.634228    ( 0.0000,  0.0000,  0.0000)
  67 O      0.174169    5.924161   15.531978    ( 0.0000,  0.0000,  0.0000)
  68 O      5.377775    3.887449   15.524313    ( 0.0000,  0.0000,  0.0000)
  69 O      9.043817    3.816462   13.975977    ( 0.0000,  0.0000,  0.0000)
  70 O      3.804302    5.719895   13.953229    ( 0.0000,  0.0000,  0.0000)
  71 O      8.476572    9.555862    6.000000    ( 0.0000,  0.0000,  0.0000)
  72 O      3.305699    7.644690    6.000000    ( 0.0000,  0.0000,  0.0000)
  73 Ti     1.412752    7.644690    6.752957    ( 0.0000,  0.0000,  0.0000)
  74 Ti     6.583625    9.555862    6.752957    ( 0.0000,  0.0000,  0.0000)
  75 Ti     9.522250    9.555862    7.640878    ( 0.0000,  0.0000,  0.0000)
  76 Ti     4.351376    7.644690    7.640878    ( 0.0000,  0.0000,  0.0000)
  77 O      9.861551    7.644690    7.505914    ( 0.0000,  0.0000,  0.0000)
  78 O      4.690678    9.555862    7.505914    ( 0.0000,  0.0000,  0.0000)
  79 O      7.629303    9.555862    8.393834    ( 0.0000,  0.0000,  0.0000)
  80 O      2.458430    7.644690    8.393834    ( 0.0000,  0.0000,  0.0000)
  81 O      6.244323    7.644690    6.887921    ( 0.0000,  0.0000,  0.0000)
  82 O      1.073450    9.555862    6.887921    ( 0.0000,  0.0000,  0.0000)
  83 O      9.800206    9.565009    9.598280    ( 0.0000,  0.0000,  0.0000)
  84 O      4.634007    7.647519    9.595458    ( 0.0000,  0.0000,  0.0000)
  85 Ti     2.801816    7.653668   10.330360    ( 0.0000,  0.0000,  0.0000)
  86 Ti     7.936987    9.558040   10.318141    ( 0.0000,  0.0000,  0.0000)
  87 Ti     0.545476    9.556246   11.172831    ( 0.0000,  0.0000,  0.0000)
  88 Ti     5.718317    7.648724   11.202042    ( 0.0000,  0.0000,  0.0000)
  89 O      0.935119    7.648839   11.109323    ( 0.0000,  0.0000,  0.0000)
  90 O      6.088264    9.562690   11.069170    ( 0.0000,  0.0000,  0.0000)
  91 O      9.028207    9.503724   11.966039    ( 0.0000,  0.0000,  0.0000)
  92 O      3.883648    7.649941   11.966060    ( 0.0000,  0.0000,  0.0000)
  93 O      7.561455    7.647964   10.441429    ( 0.0000,  0.0000,  0.0000)
  94 O      2.397773    9.558185   10.455593    ( 0.0000,  0.0000,  0.0000)
  95 O      0.923881    9.727116   13.112667    ( 0.0000,  0.0000,  0.0000)
  96 O      6.130838    7.690553   13.118897    ( 0.0000,  0.0000,  0.0000)
  97 Ti     4.227981    7.659055   13.908347    ( 0.0000,  0.0000,  0.0000)
  98 Ti     9.388731    9.610245   13.857734    ( 0.0000,  0.0000,  0.0000)
  99 Ti     1.962780    9.589986   14.713394    ( 0.0000,  0.0000,  0.0000)
 100 Ti     7.036320    7.662333   14.815170    ( 0.0000,  0.0000,  0.0000)
 101 O      2.314409    7.657937   14.580680    ( 0.0000,  0.0000,  0.0000)
 102 O      7.558792    9.593160   14.757450    ( 0.0000,  0.0000,  0.0000)
 103 O      0.190781    9.356443   15.504844    ( 0.0000,  0.0000,  0.0000)
 104 O      5.336766    7.652242   15.478689    ( 0.0000,  0.0000,  0.0000)
 105 O      9.156163    7.654401   14.111884    ( 0.0000,  0.0000,  0.0000)
 106 O      3.810553    9.583922   13.978875    ( 0.0000,  0.0000,  0.0000)
 107 V      9.832455    7.646859   16.078675    ( 0.0000,  0.0000,  0.0000)
 108 V      2.312079    7.679077   17.639863    ( 0.0000,  0.0000,  0.0000)
 109 O      2.811177    7.655922   19.143577    ( 0.0000,  0.0000,  0.0000)
 110 O      8.240925    7.583645   16.579589    ( 0.0000,  0.0000,  0.0000)
 111 O      2.783364    9.287514   16.727941    ( 0.0000,  0.0000,  0.0000)
 112 O      0.578675    7.656811   17.567189    ( 0.0000,  0.0000,  0.0000)
 113 O      8.161483    3.841746   16.730313    ( 0.0000,  0.0000,  0.0000)
 114 O      2.798275    6.081796   16.718857    ( 0.0000,  0.0000,  0.0000)
 115 H      3.554025    9.798913   17.034689    ( 0.0000,  0.0000,  0.0000)
 116 H      3.561381    5.569945   17.041143    ( 0.0000,  0.0000,  0.0000)
 117 H      8.483090    4.732671   16.975425    ( 0.0000,  0.0000,  0.0000)
 118 H      8.972541    3.291625   16.648972    ( 0.0000,  0.0000,  0.0000)

Unit cell:
           periodic     x           y           z      points  spacing
  1. axis:    yes   10.341746    0.000000    0.000000    54     0.1915
  2. axis:    yes   -0.000000   11.467000    0.000000    60     0.1911
  3. axis:    no     0.000000    0.000000   23.497201   125     0.1880

  Lengths:  10.341746  11.467000  23.497201
  Angles:   90.000000  90.000000  90.000000

Effective grid spacing dv^(1/3) = 0.1902

                     log10-error:    total        iterations:
           time      wfs    density  energy       fermi  poisson
iter:   1  15:26:31  -2.55   +inf  -882.271559    3             
iter:   2  15:27:10  -3.44  -2.94  -882.200678    4             
iter:   3  15:27:49  -4.16  -3.05  -882.212105    3             
iter:   4  15:28:28  -4.10  -3.11  -882.202689    3             
iter:   5  15:29:07  -4.29  -3.27  -882.206575    3             
iter:   6  15:29:46  -4.60  -3.38  -882.200215    3             
iter:   7  15:30:25  -5.05  -3.57  -882.200842    3             
iter:   8  15:31:04  -5.56  -3.74  -882.201090    2             
iter:   9  15:31:43  -5.48  -3.86  -882.201580    2             
iter:  10  15:32:22  -6.06  -4.03  -882.201793    2             
iter:  11  15:33:01  -6.11  -4.11  -882.202033    2             
iter:  12  15:33:40  -6.27  -4.20  -882.201616    2             
iter:  13  15:34:19  -6.81  -4.34  -882.201932    2             
iter:  14  15:34:58  -7.14  -4.44  -882.201515    2             
iter:  15  15:35:37  -7.04  -4.53  -882.201670    2             
iter:  16  15:36:16  -7.11  -4.66  -882.201666    2             
iter:  17  15:36:55  -7.41  -4.79  -882.201665    2             

Converged after 17 iterations.

Dipole moment: (-9.036866, -13.545922, -0.328665) |e|*Ang

Energy contributions relative to reference atoms: (reference = -1044901.093101)

Kinetic:       +620.342538
Potential:     -824.354042
External:        +0.000000
XC:            -688.578959
Entropy (-ST):   -0.354620
Local:          +10.566108
--------------------------
Free energy:   -882.378975
Extrapolated:  -882.201665

Fermi level: 0.98420

Showing all kpts
 Kpt  Band  Eigenvalues  Occupancy
  0   460      0.61535    0.97560
  0   461      0.88865    0.72222
  0   462      1.14747    0.16346
  0   463      1.22922    0.07943

  1   460      0.61564    0.97553
  1   461      0.88795    0.72363
  1   462      1.14708    0.16399
  1   463      1.22976    0.07903



Forces in eV/Ang:
  0 O    -1.98060    0.00672    1.34957
  1 O    -1.97380    0.00774    1.34495
  2 Ti    3.61837   -0.02558    1.47163
  3 Ti    3.64951   -0.04735    1.42894
  4 Ti   -1.77664   -0.02716   -2.00917
  5 Ti   -1.77150   -0.05915   -2.01750
  6 O     0.88965   -0.01011   -0.17006
  7 O     0.85057    0.14795   -0.10944
  8 O    -0.69232    0.01218   -0.43004
  9 O    -0.65791    0.03658   -0.43641
 10 O    -0.29627   -0.00207   -0.86618
 11 O    -0.27183    0.06680   -0.86010
 12 O     0.07882    0.00616    0.20331
 13 O     0.06311   -0.00511    0.19365
 14 Ti    0.12803   -0.02791    0.04102
 15 Ti    0.19208   -0.13135   -0.00556
 16 Ti    0.12000   -0.02502   -0.04715
 17 Ti   -0.02549   -0.01046   -0.03128
 18 O    -0.02231    0.01973   -0.07515
 19 O     0.09285   -0.02773   -0.09329
 20 O    -0.02359   -0.00519   -0.01556
 21 O     0.02770   -0.04690    0.01436
 22 O     0.04751   -0.00346    0.07437
 23 O     0.03271   -0.06942    0.26807
 24 O    -0.02523   -0.02250    0.37893
 25 O     0.08749    0.01260    0.29133
 26 Ti    0.11711    0.11439    0.05745
 27 Ti    0.16273    0.01846    0.09193
 28 Ti   -0.19317    0.01800   -0.01922
 29 Ti   -0.24638    0.04520    0.00707
 30 O     0.01651   -0.06893    0.15577
 31 O    -0.02814    0.06033    0.08001
 32 O     0.17768    0.03805   -0.09242
 33 O     0.18261   -0.00485   -0.12772
 34 O    -0.10897   -0.13858    0.17975
 35 O    -0.18578   -0.05401   -0.07409
 36 O    -1.96658   -0.00134    1.38481
 37 O    -1.79568    0.00270    1.40143
 38 Ti    3.41043   -0.01553    1.35339
 39 Ti    3.56038    0.03581    1.33736
 40 Ti   -1.62214   -0.00499   -1.81832
 41 Ti   -1.73866   -0.01490   -1.54358
 42 O     0.91583    0.04015   -0.18202
 43 O     0.86249   -0.12080   -0.11225
 44 O    -0.64607   -0.01132   -0.55132
 45 O    -0.54666    0.01655   -0.93419
 46 O    -0.36203    0.02728   -0.84670
 47 O    -0.28748   -0.04496   -0.89672
 48 O     0.06574   -0.00318    0.06992
 49 O    -0.12703    0.00743    0.04612
 50 Ti   -0.00106    0.05352    0.05920
 51 Ti    0.13314    0.14305   -0.01403
 52 Ti    0.05770    0.00537    0.04694
 53 Ti   -0.04371   -0.02208   -0.03730
 54 O    -0.07111   -0.00714    0.02114
 55 O     0.13481    0.01412   -0.05182
 56 O     0.05127    0.00549    0.18783
 57 O     0.21270   -0.00310    0.04298
 58 O     0.07938    0.05256    0.26409
 59 O     0.02261    0.02182    0.35342
 60 O     0.00599    0.02504    0.53994
 61 Ti   -0.02005   -0.04009    0.22872
 62 Ti    0.03829   -0.14862   -0.03858
 63 Ti    0.19239   -0.10221   -0.00941
 64 Ti   -0.21652   -0.04512   -0.11482
 65 O    -0.07992    0.13439    0.19215
 66 O     0.01003   -0.00085    0.12659
 67 O    -0.12112    0.02054    0.05133
 68 O     0.36259    0.01430    0.29228
 69 O    -0.19985    0.17673    0.10075
 70 O    -0.12666    0.10610   -0.10996
 71 O    -1.94934   -0.00195    1.38789
 72 O    -1.97152   -0.00991    1.35712
 73 Ti    3.59697    0.04488    1.42422
 74 Ti    3.51928    0.01200    1.37154
 75 Ti   -1.63128    0.03134   -1.84731
 76 Ti   -1.65905    0.06870   -1.77323
 77 O     0.88288   -0.00358   -0.15751
 78 O     0.89967   -0.01365   -0.17341
 79 O    -0.62288    0.00403   -0.47673
 80 O    -0.62998   -0.02204   -0.43146
 81 O    -0.29465   -0.02564   -0.91188
 82 O    -0.31192   -0.02297   -0.89418
 83 O     0.04120   -0.00685    0.09042
 84 O     0.03593    0.00672    0.05640
 85 Ti    0.05760   -0.04318    0.07103
 86 Ti    0.08053   -0.01762    0.00048
 87 Ti    0.01760    0.04614    0.01652
 88 Ti   -0.06222    0.02845    0.00781
 89 O     0.07693    0.00951   -0.01601
 90 O     0.04528    0.01260   -0.03223
 91 O     0.05148    0.00049    0.15995
 92 O     0.00125    0.04882    0.00983
 93 O     0.05521    0.00477    0.01183
 94 O     0.01658   -0.00254    0.07071
 95 O     0.05648   -0.06981    0.38447
[...]
 107 V      9.777754    7.645932   16.187815    ( 0.0000,  0.0000,  0.0000)
 108 V      2.317375    7.672179   17.692608    ( 0.0000,  0.0000,  0.0000)
 109 O      2.830408    7.654913   19.193614    ( 0.0000,  0.0000,  0.0000)
 110 O      8.179456    7.569361   16.707311    ( 0.0000,  0.0000,  0.0000)
 111 O      2.734209    9.317701   16.795597    ( 0.0000,  0.0000,  0.0000)
 112 O      0.575321    7.647113   17.631665    ( 0.0000,  0.0000,  0.0000)
 113 O      8.180122    3.792187   16.769873    ( 0.0000,  0.0000,  0.0000)
 114 O      2.765209    6.052953   16.777064    ( 0.0000,  0.0000,  0.0000)
 115 H      3.566679    9.784956   17.007613    ( 0.0000,  0.0000,  0.0000)
 116 H      3.563918    5.551416   17.033805    ( 0.0000,  0.0000,  0.0000)
 117 H      8.460606    4.678887   17.074767    ( 0.0000,  0.0000,  0.0000)
 118 H      9.013948    3.278598   16.650678    ( 0.0000,  0.0000,  0.0000)

Unit cell:
           periodic     x           y           z      points  spacing
  1. axis:    yes   10.341746    0.000000    0.000000    54     0.1915
  2. axis:    yes   -0.000000   11.467000    0.000000    60     0.1911
  3. axis:    no     0.000000    0.000000   23.497201   125     0.1880

  Lengths:  10.341746  11.467000  23.497201
  Angles:   90.000000  90.000000  90.000000

Effective grid spacing dv^(1/3) = 0.1902

                     log10-error:    total        iterations:
           time      wfs    density  energy       fermi  poisson
iter:   1  16:19:10  -2.26   +inf  -882.823900    4             
iter:   2  16:19:49  -3.01  -2.70  -882.623151    5             
iter:   3  16:20:28  -3.81  -2.81  -882.615721    3             
iter:   4  16:21:07  -3.61  -2.88  -882.570129    3             
iter:   5  16:21:46  -3.58  -3.00  -882.566524    3             
iter:   6  16:22:25  -4.21  -3.11  -882.569399    3             
iter:   7  16:23:04  -4.49  -3.24  -882.570421    3             
iter:   8  16:23:42  -4.66  -3.33  -882.567835    3             
iter:   9  16:24:21  -4.90  -3.57  -882.567624    2             
iter:  10  16:25:00  -5.64  -3.73  -882.566349    2             
iter:  11  16:25:39  -5.64  -3.82  -882.567194    2             
iter:  12  16:26:18  -6.04  -3.92  -882.566737    2             
iter:  13  16:26:57  -6.27  -4.01  -882.567283    2             
iter:  14  16:27:35  -6.35  -4.11  -882.566990    2             
iter:  15  16:28:14  -6.44  -4.29  -882.567224    2             
iter:  16  16:28:53  -6.89  -4.43  -882.567243    2             
iter:  17  16:29:32  -7.08  -4.50  -882.567454    2             
iter:  18  16:30:11  -7.06  -4.57  -882.567312    2             
iter:  19  16:30:50  -7.54  -4.78  -882.567344    2             

Converged after 19 iterations.

Dipole moment: (-3.700429, -11.866081, -0.456616) |e|*Ang

Energy contributions relative to reference atoms: (reference = -1044901.093101)

Kinetic:       +581.846701
Potential:     -793.336980
External:        +0.000000
XC:            -681.445126
Entropy (-ST):   -0.407356
Local:          +10.571738
--------------------------
Free energy:   -882.771022
Extrapolated:  -882.567344

Fermi level: 0.98851

Showing all kpts
 Kpt  Band  Eigenvalues  Occupancy
  0   460      0.72717    0.93172
  0   461      0.89648    0.71510
  0   462      1.13236    0.19178
  0   463      1.21791    0.09162

  1   460      0.72758    0.93146
  1   461      0.89593    0.71622
  1   462      1.13220    0.19203
  1   463      1.21805    0.09151



Forces in eV/Ang:
  0 O    -1.87539    0.00539    1.39077
  1 O    -1.86742    0.00799    1.38998
  2 Ti    3.62860   -0.03239    1.53774
  3 Ti    3.66282   -0.04538    1.48572
  4 Ti   -1.81381   -0.02441   -1.74193
  5 Ti   -1.83037   -0.05720   -1.77649
  6 O     0.85771   -0.01755   -0.11537
  7 O     0.81981    0.14500   -0.05045
  8 O    -0.47280    0.01797   -0.13144
  9 O    -0.47992    0.05254   -0.10479
 10 O    -0.31981   -0.00191   -0.90820
 11 O    -0.28900    0.07019   -0.91116
 12 O    -0.00036   -0.00158    0.00028
 13 O     0.00052   -0.00105    0.00079
 14 Ti    0.00192    0.00084    0.00085
 15 Ti   -0.00139   -0.00034   -0.00017
 16 Ti    0.00328   -0.00357   -0.00034
 17 Ti   -0.00216   -0.00176    0.00044
 18 O    -0.00045    0.00130   -0.00083
 19 O     0.00002   -0.00057    0.00264
 20 O    -0.00131   -0.00393    0.00097
 21 O     0.00007   -0.00392   -0.00526
 22 O     0.00041   -0.00090    0.00177
 23 O     0.00107   -0.00244    0.00146
 24 O    -0.00105   -0.00035   -0.00824
 25 O    -0.00001   -0.00475   -0.00507
 26 Ti   -0.00192   -0.00458    0.00625
 27 Ti   -0.00239    0.00114    0.00233
 28 Ti    0.00078   -0.00022    0.00932
 29 Ti    0.00152    0.00323   -0.00173
 30 O     0.00579   -0.00287    0.00974
 31 O     0.00149    0.00316   -0.00412
 32 O    -0.00078    0.00274    0.00063
 33 O    -0.00240    0.00095   -0.00120
 34 O    -0.00326   -0.00043   -0.00792
 35 O    -0.00139    0.00145   -0.00224
 36 O    -1.87235   -0.00134    1.42323
 37 O    -1.70094    0.00315    1.43939
 38 Ti    3.39280   -0.01117    1.37140
 39 Ti    3.55894    0.03841    1.37982
 40 Ti   -1.64001    0.00676   -1.58326
 41 Ti   -1.75380   -0.00551   -1.32002
 42 O     0.88369    0.03433   -0.12330
 43 O     0.83502   -0.12289   -0.06612
 44 O    -0.45414    0.00084   -0.18152
 45 O    -0.44412    0.01213   -0.69916
 46 O    -0.38765    0.02464   -0.84193
 47 O    -0.30439   -0.05456   -0.87575
 48 O    -0.00084    0.00061    0.00183
 49 O     0.00439   -0.00075    0.00548
 50 Ti   -0.00297    0.00130   -0.00403
 51 Ti    0.00072    0.00114    0.00121
 52 Ti   -0.00094   -0.00124   -0.00209
 53 Ti    0.00264   -0.00122    0.00032
 54 O     0.00188    0.00034    0.00043
 55 O    -0.00091   -0.00012    0.00242
 56 O     0.00017    0.00038    0.00109
 57 O    -0.00137   -0.00036    0.00650
 58 O     0.00058   -0.00094   -0.00187
 59 O     0.00106   -0.00179   -0.00000
 60 O     0.00099    0.00300    0.00255
 61 Ti   -0.00174   -0.00279    0.00183
 62 Ti   -0.00042   -0.00271   -0.00062
 63 Ti    0.00155   -0.00217    0.00228
 64 Ti    0.00166   -0.00668    0.00299
 65 O     0.00211   -0.00096    0.00492
 66 O     0.00657   -0.00000    0.00304
 67 O    -0.00266    0.00054    0.00247
 68 O    -0.00032   -0.00759    0.00390
 69 O    -0.00113   -0.00123   -0.00134
 70 O    -0.00635   -0.00236   -0.00077
 71 O    -1.85217   -0.00270    1.42896
 72 O    -1.87039   -0.00890    1.39710
 73 Ti    3.60070    0.04594    1.49268
 74 Ti    3.52589    0.00942    1.41746
 75 Ti   -1.65918    0.01547   -1.60642
 76 Ti   -1.72182    0.06187   -1.53128
 77 O     0.85415   -0.00139   -0.12861
 78 O     0.87060   -0.00503   -0.11610
 79 O    -0.45137    0.00758   -0.16185
 80 O    -0.47898   -0.04280   -0.06936
 81 O    -0.31427   -0.02352   -0.87466
 82 O    -0.33378   -0.01604   -0.88301
 83 O     0.00009   -0.00082    0.00073
 84 O     0.00015    0.00347   -0.00288
 85 Ti    0.00101    0.00224   -0.00380
 86 Ti    0.00239   -0.00220    0.00009
 87 Ti   -0.00232   -0.00126    0.00069
 88 Ti    0.00218    0.00167    0.00348
 89 O    -0.00067    0.00321   -0.00054
 90 O     0.00059    0.00002    0.00209
 91 O    -0.00044   -0.00027    0.00075
 92 O     0.00091    0.00394    0.00508
 93 O    -0.00018    0.00059    0.00324
 94 O     0.00137   -0.00130   -0.00182
 95 O    -0.00491    0.00551   -0.00202
 96 O     0.00242    0.00226   -0.00179
 97 Ti   -0.00510    0.00306   -0.00324
 98 Ti   -0.00295    0.00256   -0.00227
 99 Ti    0.00428    0.00521    0.00466
100 Ti    0.00334    0.00426   -0.00306
101 O     0.00458   -0.00206    0.00016
102 O    -0.00146   -0.00151   -0.00600
103 O    -0.00774   -0.00245    0.00022
104 O    -0.00293    0.00469    0.00008
105 O    -0.01000    0.00188   -0.00047
106 O    -0.00383    0.00299    0.00225
107 V     0.00792    0.00059   -0.00134
108 V     0.00166   -0.00200    0.00500
109 O    -0.00147   -0.00346    0.00072
110 O    -0.01301    0.00085    0.00292
111 O     0.00101    0.00151   -0.00313
112 O    -0.00409   -0.00531    0.00293
113 O     0.00250   -0.00098    0.00066
114 O    -0.00516    0.00281    0.00267
115 H    -0.00495   -0.00106   -0.00112
116 H     0.00177   -0.00067    0.00504
117 H     0.00094    0.00012    0.00230
118 H    -0.00118    0.00084   -0.00165

System changes: positions 

Initializing position-dependent things.

Density initialized from wave functions
                                                
                                                
                                                
                                                
                                                
                                                
                   O                            
                      H                         
             O    V O       O                   
             O                  Oi              
                  OH            O   V           
                       O O   TiH    Ti          
           O   O  O           OH  O             
               Ti     TO   O O                  
         O     O    O      Tii   OTi            
             TiTi   TiO    OO   O               
             OO   OO    O Ti   TiOi             
          O Ti   TiTi     O  O O     O          
                 O     OTi    TiO               
            O     O   O  O  O  O   O Ti         
         Ti   O TO   O Oi    Ti     O           
         O     Ti          OTiO   O             
             OTiO   O O         O Ti            
                  O Ti     Oi     O             
             Oi     O    O      Ti              
           O      Ti    Ti     O                
          Ti          O      O                  
               O                                
                                                
                                                
                                                
                                                

Positions:
   0 O      8.476572    1.911173    6.000000    ( 0.0000,  0.0000,  0.0000)
   1 O      3.305699    0.000000    6.000000    ( 0.0000,  0.0000,  0.0000)
   2 Ti     1.412752    0.000000    6.752957    ( 0.0000,  0.0000,  0.0000)
   3 Ti     6.583625    1.911173    6.752957    ( 0.0000,  0.0000,  0.0000)
   4 Ti     9.522250    1.911173    7.640878    ( 0.0000,  0.0000,  0.0000)
   5 Ti     4.351376    0.000000    7.640878    ( 0.0000,  0.0000,  0.0000)
   6 O      9.861551    0.000000    7.505914    ( 0.0000,  0.0000,  0.0000)
   7 O      4.690678    1.911173    7.505914    ( 0.0000,  0.0000,  0.0000)
   8 O      7.629303    1.911173    8.393834    ( 0.0000,  0.0000,  0.0000)
   9 O      2.458430    0.000000    8.393834    ( 0.0000,  0.0000,  0.0000)
  10 O      6.244323    0.000000    6.887921    ( 0.0000,  0.0000,  0.0000)
  11 O      1.073450    1.911173    6.887921    ( 0.0000,  0.0000,  0.0000)
  12 O      9.820129    1.913409    9.614101    ( 0.0000,  0.0000,  0.0000)
  13 O      4.638789    0.003863    9.614816    ( 0.0000,  0.0000,  0.0000)
  14 Ti     2.799808    0.009312   10.371934    ( 0.0000,  0.0000,  0.0000)
  15 Ti     7.970589    1.913337   10.360996    ( 0.0000,  0.0000,  0.0000)
  16 Ti     0.523366    1.917241   11.207734    ( 0.0000,  0.0000,  0.0000)
  17 Ti     5.699002   11.467530   11.196225    ( 0.0000,  0.0000,  0.0000)
  18 O      0.936525    0.010098   11.085374    ( 0.0000,  0.0000,  0.0000)
  19 O      6.116478    1.910306   11.096383    ( 0.0000,  0.0000,  0.0000)
  20 O      9.056120    1.892214   12.017510    ( 0.0000,  0.0000,  0.0000)
  21 O      3.881589   -0.000765   12.017118    ( 0.0000,  0.0000,  0.0000)
  22 O      7.596522   11.464035   10.506461    ( 0.0000,  0.0000,  0.0000)
  23 O      2.447966    1.923731   10.557165    ( 0.0000,  0.0000,  0.0000)
  24 O      0.920715    1.918811   13.173787    ( 0.0000,  0.0000,  0.0000)
  25 O      6.078597    0.023896   13.156004    ( 0.0000,  0.0000,  0.0000)
  26 Ti     4.211679    0.039120   14.027943    ( 0.0000,  0.0000,  0.0000)
  27 Ti     9.375556    1.916432   14.015548    ( 0.0000,  0.0000,  0.0000)
  28 Ti     1.830065    1.933725   14.749089    ( 0.0000,  0.0000,  0.0000)
  29 Ti     7.010336   11.467160   14.717789    ( 0.0000,  0.0000,  0.0000)
  30 O      2.364582    0.045335   14.924259    ( 0.0000,  0.0000,  0.0000)
  31 O      7.536388    1.898591   14.856302    ( 0.0000,  0.0000,  0.0000)
  32 O      0.166590    1.964693   15.570312    ( 0.0000,  0.0000,  0.0000)
  33 O      5.364307   11.468555   15.549360    ( 0.0000,  0.0000,  0.0000)
  34 O      9.005010    0.004334   14.128229    ( 0.0000,  0.0000,  0.0000)
  35 O      3.788553    1.944700   14.084319    ( 0.0000,  0.0000,  0.0000)
  36 O      8.476572    5.733518    6.000000    ( 0.0000,  0.0000,  0.0000)
  37 O      3.305699    3.822345    6.000000    ( 0.0000,  0.0000,  0.0000)
  38 Ti     1.412752    3.822345    6.752957    ( 0.0000,  0.0000,  0.0000)
  39 Ti     6.583625    5.733518    6.752957    ( 0.0000,  0.0000,  0.0000)
  40 Ti     9.522250    5.733518    7.640878    ( 0.0000,  0.0000,  0.0000)
  41 Ti     4.351376    3.822345    7.640878    ( 0.0000,  0.0000,  0.0000)
  42 O      9.861551    3.822345    7.505914    ( 0.0000,  0.0000,  0.0000)
  43 O      4.690678    5.733518    7.505914    ( 0.0000,  0.0000,  0.0000)
  44 O      7.629303    5.733518    8.393834    ( 0.0000,  0.0000,  0.0000)
  45 O      2.458430    3.822345    8.393834    ( 0.0000,  0.0000,  0.0000)
  46 O      6.244323    3.822345    6.887921    ( 0.0000,  0.0000,  0.0000)
  47 O      1.073450    5.733518    6.887921    ( 0.0000,  0.0000,  0.0000)
  48 O      9.830591    5.745384    9.630834    ( 0.0000,  0.0000,  0.0000)
  49 O      4.613974    3.831596    9.695897    ( 0.0000,  0.0000,  0.0000)
  50 Ti     2.762551    3.823716   10.300571    ( 0.0000,  0.0000,  0.0000)
  51 Ti     7.972146    5.745299   10.333693    ( 0.0000,  0.0000,  0.0000)
  52 Ti     0.561925    5.740591   11.248648    ( 0.0000,  0.0000,  0.0000)
  53 Ti     5.745514    3.828466   11.250515    ( 0.0000,  0.0000,  0.0000)
  54 O      0.923133    3.823721   11.110523    ( 0.0000,  0.0000,  0.0000)
  55 O      6.123595    5.744164   11.124141    ( 0.0000,  0.0000,  0.0000)
  56 O      9.046906    5.820229   12.014146    ( 0.0000,  0.0000,  0.0000)
  57 O      7.637842    3.832356   10.517746    ( 0.0000,  0.0000,  0.0000)
  58 O      2.446585    5.733900   10.563292    ( 0.0000,  0.0000,  0.0000)
  59 O      0.904209    5.591990   13.218311    ( 0.0000,  0.0000,  0.0000)
  60 O      5.965792    3.783243   13.210072    ( 0.0000,  0.0000,  0.0000)
  61 Ti     4.260034    3.822463   14.221973    ( 0.0000,  0.0000,  0.0000)
  62 Ti     9.341664    5.690497   13.905245    ( 0.0000,  0.0000,  0.0000)
  63 Ti     1.927889    5.720376   14.828230    ( 0.0000,  0.0000,  0.0000)
  64 Ti     7.033896    3.830443   14.827376    ( 0.0000,  0.0000,  0.0000)
  65 O      2.354214    3.812438   15.024616    ( 0.0000,  0.0000,  0.0000)
  66 O      7.489800    5.737848   14.712362    ( 0.0000,  0.0000,  0.0000)
  67 O      0.113106    5.935445   15.603952    ( 0.0000,  0.0000,  0.0000)
  68 O      5.398148    3.896205   15.702705    ( 0.0000,  0.0000,  0.0000)
  69 O      8.990658    3.823787   14.066719    ( 0.0000,  0.0000,  0.0000)
  70 O      3.770164    5.712021   14.058336    ( 0.0000,  0.0000,  0.0000)
  71 O      8.476572    9.555862    6.000000    ( 0.0000,  0.0000,  0.0000)
  72 O      3.305699    7.644690    6.000000    ( 0.0000,  0.0000,  0.0000)
  73 Ti     1.412752    7.644690    6.752957    ( 0.0000,  0.0000,  0.0000)
  74 Ti     6.583625    9.555862    6.752957    ( 0.0000,  0.0000,  0.0000)
  75 Ti     9.522250    9.555862    7.640878    ( 0.0000,  0.0000,  0.0000)
  76 Ti     4.351376    7.644690    7.640878    ( 0.0000,  0.0000,  0.0000)
  77 O      9.861551    7.644690    7.505914    ( 0.0000,  0.0000,  0.0000)
  78 O      4.690678    9.555862    7.505914    ( 0.0000,  0.0000,  0.0000)
  79 O      7.629303    9.555862    8.393834    ( 0.0000,  0.0000,  0.0000)
  80 O      2.458430    7.644690    8.393834    ( 0.0000,  0.0000,  0.0000)
  81 O      6.244323    7.644690    6.887921    ( 0.0000,  0.0000,  0.0000)
  82 O      1.073450    9.555862    6.887921    ( 0.0000,  0.0000,  0.0000)
  83 O      9.819481    9.552649    9.635793    ( 0.0000,  0.0000,  0.0000)
  84 O      4.648328    7.645216    9.631119    ( 0.0000,  0.0000,  0.0000)
  85 Ti     2.825954    7.652359   10.359884    ( 0.0000,  0.0000,  0.0000)
  86 Ti     7.970378    9.556957   10.337097    ( 0.0000,  0.0000,  0.0000)
  87 Ti     0.556010    9.560010   11.246422    ( 0.0000,  0.0000,  0.0000)
  88 Ti     5.727510    7.652451   11.267824    ( 0.0000,  0.0000,  0.0000)
  89 O      0.962215    7.650604   11.171248    ( 0.0000,  0.0000,  0.0000)
  90 O      6.110350    9.562973   11.100435    ( 0.0000,  0.0000,  0.0000)
  91 O      9.040003    9.527182   12.028085    ( 0.0000,  0.0000,  0.0000)
  92 O      3.892899    7.662537   12.019426    ( 0.0000,  0.0000,  0.0000)
  93 O      7.589418    7.654145   10.499413    ( 0.0000,  0.0000,  0.0000)
  94 O      2.418143    9.557734   10.513769    ( 0.0000,  0.0000,  0.0000)
  95 O      0.906845    9.708603   13.214866    ( 0.0000,  0.0000,  0.0000)
  96 O      6.093046    7.686878   13.225306    ( 0.0000,  0.0000,  0.0000)
  97 Ti     4.220494    7.655274   13.978372    ( 0.0000,  0.0000,  0.0000)
  98 Ti     9.365404    9.608433   13.932692    ( 0.0000,  0.0000,  0.0000)
  99 Ti     1.939543    9.588760   14.830790    ( 0.0000,  0.0000,  0.0000)
 100 Ti     6.993341    7.656607   14.955279    ( 0.0000,  0.0000,  0.0000)
 101 O      2.290203    7.653365   14.675741    ( 0.0000,  0.0000,  0.0000)
 102 O      7.520903    9.582012   14.833730    ( 0.0000,  0.0000,  0.0000)
 103 O      0.144189    9.349081   15.604442    ( 0.0000,  0.0000,  0.0000)
 104 O      5.293046    7.638686   15.592615    ( 0.0000,  0.0000,  0.0000)
 105 O      9.095834    7.657049   14.226955    ( 0.0000,  0.0000,  0.0000)
 106 O      3.789748    9.580790   14.100630    ( 0.0000,  0.0000,  0.0000)
 107 V      9.777479    7.645878   16.187768    ( 0.0000,  0.0000,  0.0000)
 108 V      2.317196    7.671995   17.692573    ( 0.0000,  0.0000,  0.0000)
 109 O      2.830315    7.654900   19.193534    ( 0.0000,  0.0000,  0.0000)
 110 O      8.178963    7.569466   16.707668    ( 0.0000,  0.0000,  0.0000)
 111 O      2.733805    9.317652   16.795382    ( 0.0000,  0.0000,  0.0000)
 112 O      0.575129    7.647080   17.631637    ( 0.0000,  0.0000,  0.0000)
 113 O      8.180157    3.792392   16.770106    ( 0.0000,  0.0000,  0.0000)
 114 O      2.765133    6.053002   16.777479    ( 0.0000,  0.0000,  0.0000)
 115 H      3.566101    9.784857   17.007603    ( 0.0000,  0.0000,  0.0000)
 116 H      3.563906    5.551440   17.034247    ( 0.0000,  0.0000,  0.0000)
 117 H      8.460755    4.679032   17.075139    ( 0.0000,  0.0000,  0.0000)
 118 H      9.013749    3.278755   16.650412    ( 0.0000,  0.0000,  0.0000)

Unit cell:
           periodic     x           y           z      points  spacing
  1. axis:    yes   10.341746    0.000000    0.000000    54     0.1915
  2. axis:    yes   -0.000000   11.467000    0.000000    60     0.1911
  3. axis:    no     0.000000    0.000000   23.497201   125     0.1880

  Lengths:  10.341746  11.467000  23.497201
  Angles:   90.000000  90.000000  90.000000

Effective grid spacing dv^(1/3) = 0.1902

                     log10-error:    total        iterations:
           time      wfs    density  energy       fermi  poisson
iter:   1  16:31:53  -5.59   +inf  -882.568561    2             
iter:   2  16:32:31  -6.38  -4.36  -882.567124    2             
iter:   3  16:33:10  -7.05  -4.44  -882.567668    2             
iter:   4  16:33:49  -6.72  -4.53  -882.567472    2             
iter:   5  16:34:28  -7.30  -4.73  -882.567476    2             
slurmstepd: error: *** JOB 2698740 ON s73n43 CANCELLED AT 2019-07-03T16:35:04 ***
