118
Lattice="10.341746277552646 0.0 0.0 -2.619435405085487e-16 11.467 0.0 0.0 0.0 23.497200848665354" Properties=species:S:1:pos:R:3:forces:R:3 energy=-858.5089780185834 dipole="-17.036897054678544 3.4522282844805052 -1.0956832920145931" pbc="T T F"
O       8.47657182       1.91117250       6.00000000      -1.83342789      -0.00889193       1.56631755 
O       3.30569868       0.00000000       6.00000000      -1.89889156      -0.00635177       1.60167759 
Ti       1.41275186       0.00000000       6.75295684       3.61118805       0.05935467       1.75455928 
Ti       6.58362500       1.91117250       6.75295684       3.83789156       0.04020796       1.98024121 
Ti       9.52224953       1.91117250       7.64087763      -1.91707331       0.04127733      -1.82015926 
Ti       4.35137640       0.00000000       7.64087763      -1.51197223       0.03027118      -1.75662149 
O       9.86155132       0.00000000       7.50591367       0.98063060      -0.01414500      -0.23372183 
O       4.69067818       1.91117250       7.50591367       0.87758112      -0.07869233      -0.20514377 
O       7.62930272       1.91117250       8.39383447      -0.80105092      -0.02444168      -0.55885435 
O       2.45842958       0.00000000       8.39383447      -0.84064943      -0.02596276      -0.54259541 
O       6.24432321       0.00000000       6.88792080      -0.28875102      -0.00649566      -0.67867601 
O       1.07345007       1.91117250       6.88792080      -0.18338922      -0.11739309      -0.71603041 
O       9.80960525       1.89940638       9.60155188      -0.00380086       0.00172076      -0.00639201 
O       4.64271362       0.00099957       9.61034040      -0.00203611       0.00203473       0.02092409 
Ti       2.77632334       0.01229156      10.31810122       0.02105287      -0.00018845       0.00336920 
Ti       7.96994183       1.91449307      10.37564088      -0.00871179       0.00140872      -0.00146620 
Ti       0.49937557       1.88704744      11.20438736       0.00552945      -0.00171804       0.00751220 
Ti       5.72690739      11.43921004      11.20287351      -0.02283845       0.00930105      -0.01389641 
O       0.90659979      11.46091370      11.09288199       0.00133838       0.00529633       0.00216941 
O       6.08269083       1.90638349      11.09180773       0.01411339       0.00536557      -0.00263344 
O       9.04181746       1.88808259      11.97140763       0.00256041       0.01484709      -0.01863366 
O       3.85072606      11.46052366      11.95150866      -0.00110994       0.00111296      -0.00876552 
O       7.55432638      11.46376879      10.45647331      -0.00384634      -0.00127479       0.00394808 
O       2.38772117       1.89418581      10.44892752      -0.01322166       0.00732255       0.00963194 
O       0.96427462       1.90449617      13.14332341       0.00665970      -0.00631640       0.03193151 
O       6.05562323       0.02923915      13.23276608       0.00800946       0.00079940       0.00034950 
Ti       4.20327308       0.07604041      13.80973481       0.00236298      -0.00519294       0.01276961 
Ti       9.44038685       2.00308099      14.02830857      -0.00446987       0.01298733       0.00485160 
Ti       1.88976698       1.87094902      14.76402041      -0.00308934       0.01487816       0.00791153 
Ti       7.26069776      11.48654579      14.81969733      -0.00415781       0.01666411      -0.00710569 
O       2.36037921      11.46697966      14.79120174      -0.01589719       0.00808892       0.00551044 
O       7.55912074       1.98257762      14.77919410       0.01360242      -0.00988366       0.00172849 
O       0.20857810       1.99903821      15.48427399       0.01792140       0.03718865      -0.00099640 
O       5.18717654      11.41075030      15.58944065      -0.00194036       0.00304750       0.00030602 
O       9.01348377      11.46932923      14.13063205      -0.01588864       0.01249966      -0.02470949 
O       3.85114419       1.90145859      13.94668295      -0.01566825      -0.00109129       0.01186453 
O       8.47657182       5.73351750       6.00000000      -1.84741378       0.00199056       1.55352857 
O       3.30569868       3.82234500       6.00000000      -1.88804598      -0.00135330       1.54776691 
Ti       1.41275186       3.82234500       6.75295684       3.85165208       0.00151843       1.98796871 
Ti       6.58362500       5.73351750       6.75295684       3.89034498      -0.03103514       2.02070449 
Ti       9.52224953       5.73351750       7.64087763      -2.02935607      -0.03039326      -2.05603591 
Ti       4.35137640       3.82234500       7.64087763      -1.88332600       0.00949011      -2.03691179 
O       9.86155132       3.82234500       7.50591367       0.92440049      -0.04176239      -0.20405482 
O       4.69067818       5.73351750       7.50591367       0.86247086       0.06161698      -0.18507039 
O       7.62930272       5.73351750       8.39383447      -0.81058062       0.01556248      -0.57756596 
O       2.45842958       3.82234500       8.39383447      -0.83087637      -0.02189356      -0.56849129 
O       6.24432321       3.82234500       6.88792080      -0.22725867      -0.03133263      -0.74356471 
O       1.07345007       5.73351750       6.88792080      -0.16100294       0.11122242      -0.73852674 
O       9.80928828       5.72042399       9.57863487      -0.00443018       0.00211752      -0.01112649 
O       4.63837014       3.81920620       9.57929608      -0.00437396      -0.00003136       0.00133350 
Ti       2.75295250       3.82051180      10.38562101       0.01580909      -0.00242667      -0.00401592 
Ti       7.92362789       5.70488225      10.39979883       0.01027655       0.00983649       0.00619825 
Ti       0.48676979       5.71716929      11.11491086      -0.00193108       0.00385615       0.00614907 
Ti       5.65418659       3.78823116      11.12739427      -0.02014822      -0.00666204      -0.00123299 
O       0.90556142       3.80462285      11.08106317       0.00746957      -0.00633887      -0.00297388 
O       6.08576960       5.73291264      11.07401655       0.01607763      -0.00752704       0.00090445 
O       9.02059558       5.74784407      11.94124269       0.00245118       0.00108873       0.00170773 
O       3.86533599       3.81049140      11.93961375      -0.00011760       0.00403240       0.00522873 
O       7.56842707       3.80883947      10.44844640      -0.00374250      -0.00197135       0.00943799 
O       2.37457163       5.72686400      10.44515415      -0.01602898      -0.00136547       0.00816929 
O       0.89952374       5.66979348      13.06226282      -0.00103482       0.00419768      -0.00147660 
O       6.12156871       3.85603860      13.06971889      -0.00132586       0.00566228      -0.00042747 
Ti       4.21487179       3.87851110      14.00821000      -0.00543233      -0.01487497      -0.00348013 
Ti       9.39700581       5.74146641      14.03599296       0.00664639       0.00830516      -0.00425644 
Ti       1.85927748       5.70087805      14.55789407      -0.00545056      -0.01312499       0.00810897 
Ti       7.00878090       3.84225047      14.60436496      -0.00828144      -0.00617080      -0.00584563 
O       2.39436615       3.84466872      14.80281474      -0.00018596       0.00551825      -0.00829701 
O       7.54959335       5.75920274      14.82345710       0.01733568       0.00561535      -0.00587892 
O       0.24135408       5.76519004      15.44568797      -0.00688179      -0.00464476      -0.00296197 
O       5.39572352       3.82223326      15.45172234       0.00871902       0.00546824       0.00961482 
O       9.03902450       3.85548145      13.95744633      -0.01207628       0.01307116      -0.00835256 
O       3.87598034       5.71600174      13.95719222      -0.00346161       0.00739053      -0.00133439 
O       8.47657182       9.55586250       6.00000000      -1.84668849       0.00039429       1.53102810 
O       3.30569868       7.64469000       6.00000000      -1.94066627       0.00973050       1.60878319 
Ti       1.41275186       7.64469000       6.75295684       3.58770170      -0.06046118       1.72152898 
Ti       6.58362500       9.55586250       6.75295684       3.89650890      -0.00827727       1.98103032 
Ti       9.52224953       9.55586250       7.64087763      -1.90315279      -0.00686071      -1.62595035 
Ti       4.35137640       7.64469000       7.64087763      -1.54961986      -0.04714887      -2.04802827 
O       9.86155132       7.64469000       7.50591367       0.98914067       0.00792326      -0.22009807 
O       4.69067818       9.55586250       7.50591367       0.84765173       0.01827771      -0.18175114 
O       7.62930272       9.55586250       8.39383447      -0.90996461       0.02756018      -0.71851623 
O       2.45842958       7.64469000       8.39383447      -0.85734896       0.00496543      -0.58983848 
O       6.24432321       7.64469000       6.88792080      -0.28250667       0.03885030      -0.71703059 
O       1.07345007       9.55586250       6.88792080      -0.15045388       0.00388476      -0.70044984 
O       9.79956567       9.54934998       9.60731775       0.00287783       0.00024163      -0.01333951 
O       4.63990204       7.64953276       9.58216658      -0.00131671       0.00622440       0.01233649 
Ti       2.70321469       7.66830145      10.33060520       0.01114657       0.01392495      -0.00099742 
Ti       8.02776558       9.56697528      10.35620185      -0.01049962      -0.00295192       0.00787722 
Ti       0.52264438       9.57709139      11.30305361       0.00039499       0.00352900       0.03303034 
Ti       5.72164320       7.66216801      11.08030679      -0.01069576       0.00108370      -0.01055742 
O       0.90737226       7.64236113      11.08746406       0.00558734       0.00633116       0.00212260 
O       6.06422497       9.56354494      11.10236293       0.00629322       0.00644258       0.00011069 
O       9.03071650       9.59174238      11.97731766      -0.00691870      -0.00090516      -0.01879283 
O       3.83902345       7.63753542      11.92693119       0.00048590       0.00213549      -0.01501161 
O       7.55405718       7.66030211      10.44840605       0.00071653       0.00993129       0.00191022 
O       2.38435339       9.55688114      10.45196846      -0.01700810       0.00134592       0.00851538 
O       0.90989600       9.54923471      13.17062841      -0.00093671       0.00195101       0.02082275 
O       6.07270014       7.62945074      13.09884677      -0.00468074       0.00508429      -0.00847287 
Ti       4.08004611       7.73729181      13.77747076       0.03310568       0.01294258      -0.00417439 
Ti       9.48830672       9.52329785      14.03459123       0.02094958      -0.00031992       0.01009226 
Ti       1.95352959       9.58350744      14.98664316       0.00541646      -0.00485739       0.03566609 
Ti       7.04569109       7.67606715      14.57786895      -0.00827398       0.00792913       0.00647559 
O       2.35910269       7.58664619      14.59720063      -0.00879626       0.01137689       0.01382497 
O       7.53657315       9.50797519      14.78969310       0.00598669       0.02919379       0.00149088 
O       0.21221486       9.52961419      15.53351081       0.00599307       0.00630859       0.00436612 
O       5.36845880       7.80897681      15.59277293      -0.00579567      -0.01219000       0.00528650 
O       8.98266629       7.65073395      13.96368181      -0.00163063      -0.00665042      -0.00186394 
O       3.85561797       9.55481163      13.92532553      -0.01506871       0.01090091       0.00756520 
V       5.80012072      11.31203824      17.21722162      -0.00248340       0.00213683       0.01081010 
V       4.42107555       8.46480040      17.04771163      -0.00652347       0.00138411       0.01405054 
O       7.47296855       0.03626625      16.73979813       0.01182283      -0.01207011      -0.01035200 
O       2.94546766       9.29940683      16.56178529       0.01445942      -0.00313478      -0.00255352 
O       2.80140850       1.95740584      16.77539759       0.00827685       0.02524903      -0.00116021 
O       4.08696639       7.25972214      18.04579333      -0.00449466      -0.00131672      -0.03936081 
O       5.43905133       9.65591918      17.87643671      -0.00489456       0.02011233      -0.01028362 
O       5.14887040       1.06537953      18.07146619       0.00390692      -0.01693838      -0.00953210 
H       3.63952865       1.54955923      17.15918611       0.00053611      -0.01138341      -0.01214484 
H       2.81609867       2.88075412      17.11919316      -0.01458864      -0.01966769       0.00765675 
