118
Lattice="10.341746277552646 0.0 0.0 -2.619435405085487e-16 11.467 0.0 0.0 0.0 23.497200848665354" Properties=species:S:1:pos:R:3:forces:R:3 energy=-858.5007452372495 dipole="4.491115093699419 17.447324972601322 -1.068510300709259" pbc="T T F"
O       8.47657182       1.91117250       6.00000000      -1.89942819       0.01187496       1.49967190 
O       3.30569868       0.00000000       6.00000000      -1.89019855      -0.00408798       1.52977864 
Ti       1.41275186       0.00000000       6.75295684       3.85176509       0.00967382       2.01521835 
Ti       6.58362500       1.91117250       6.75295684       3.91150200      -0.09948798       1.98530759 
Ti       9.52224953       1.91117250       7.64087763      -1.82501118      -0.08992650      -1.60956455 
Ti       4.35137640       0.00000000       7.64087763      -1.90905863       0.03082639      -2.04243306 
O       9.86155132       0.00000000       7.50591367       0.91999124      -0.04134182      -0.23365313 
O       4.69067818       1.91117250       7.50591367       0.87798855       0.04559889      -0.22801757 
O       7.62930272       1.91117250       8.39383447      -0.93777705       0.01792129      -0.80764605 
O       2.45842958       0.00000000       8.39383447      -0.82225933      -0.01323892      -0.59067384 
O       6.24432321       0.00000000       6.88792080      -0.20670395      -0.01773050      -0.75246535 
O       1.07345007       1.91117250       6.88792080      -0.16431982       0.14709686      -0.73090202 
O       9.80637793       1.90377748       9.59493701      -0.00556316      -0.00083893       0.01755828 
O       4.64131051      11.45491192       9.57422310       0.00423521      -0.00180639       0.01885346 
Ti       2.76033252      11.43567883      10.38729979       0.00869348      -0.00777905       0.00832882 
Ti       8.02045384       1.89693507      10.35219566      -0.00121217      -0.00931919      -0.00015910 
Ti       0.52440714       1.90247575      11.28234932      -0.00371269       0.00762986      -0.02725704 
Ti       5.65772070       0.03197527      11.12220331       0.00597464       0.00384124       0.00738786 
O       0.91795352      11.45109039      11.07379146      -0.00737580       0.00129612       0.00890478 
O       6.06864967       1.90321508      11.07663806      -0.00417549       0.01456177       0.00616341 
O       9.02513930       1.91509294      11.95183206       0.00798811      -0.00663628      -0.01087932 
O       3.87118163      11.43793325      11.93800904       0.00000877       0.00324161      -0.01852469 
O       7.56900058       0.00357110      10.44468950      -0.00310190      -0.00605345      -0.00472135 
O       2.39722988       1.90480672      10.45280012      -0.01113120       0.01785142      -0.00823993 
O       0.89317685       1.81953158      13.13264884       0.02503223      -0.01146066      -0.00989976 
O       6.13013670      11.45685103      13.06775176      -0.01086534       0.00872535       0.00542477 
Ti       4.23443164      11.40171922      14.01936528      -0.00826257       0.01751772      -0.00657175 
Ti       9.48961918       1.87976868      13.99331523      -0.01926032       0.01087205       0.00962139 
Ti       1.94646606       1.89329493      14.97385970      -0.00430529      -0.01801991      -0.01679835 
Ti       7.03318264       0.02887389      14.59278812      -0.00839818      -0.01395493       0.01212056 
O       2.40488477      11.43087036      14.82062602      -0.00610780      -0.01063510      -0.00118271 
O       7.53157112       1.89026988      14.82609374      -0.01680618       0.00631694      -0.00599878 
O       0.20632800       1.91265308      15.50499732      -0.00807379       0.00073642       0.00087224 
O       5.40797303      11.41886428      15.44784325       0.00503561       0.00961441       0.00032862 
O       9.03067627       0.00577711      13.95616321      -0.00519494      -0.00034879      -0.00427634 
O       3.88722211       1.85207658      13.92834148      -0.00553838       0.00179449      -0.00622602 
O       8.47657182       5.73351750       6.00000000      -1.91802870      -0.00002418       1.59440116 
O       3.30569868       3.82234500       6.00000000      -1.98167329       0.01510756       1.56742078 
Ti       1.41275186       3.82234500       6.75295684       3.60709935      -0.12043878       1.69901166 
Ti       6.58362500       5.73351750       6.75295684       3.61311374      -0.01600464       1.70164748 
Ti       9.52224953       5.73351750       7.64087763      -1.50701084      -0.01604671      -1.67165306 
Ti       4.35137640       3.82234500       7.64087763      -1.49672948      -0.08881217      -1.86038578 
O       9.86155132       3.82234500       7.50591367       0.95488082       0.11516642      -0.23992231 
O       4.69067818       5.73351750       7.50591367       0.93039968       0.04757238      -0.24027048 
O       7.62930272       5.73351750       8.39383447      -0.86341427       0.00884031      -0.73892663 
O       2.45842958       3.82234500       8.39383447      -0.84441791       0.02301826      -0.53332273 
O       6.24432321       3.82234500       6.88792080      -0.22724747       0.16054215      -0.71709455 
O       1.07345007       5.73351750       6.88792080      -0.21423590      -0.00895257      -0.68381407 
O       9.81669531       5.72832811       9.60716932      -0.00171754       0.00801313       0.00824078 
O       4.66009539       3.81796491       9.57488523       0.00048022       0.00255268       0.00272360 
Ti       2.72703694       3.77057299      10.31800392       0.01355090      -0.01833080       0.02975010 
Ti       7.96316044       5.73827295      10.30381386       0.00500632       0.00445583       0.00120289 
Ti       0.58462921       5.76933554      11.21838631       0.01173947      -0.00614302      -0.01721597 
Ti       5.73342764       3.80396812      11.11498022       0.01216284      -0.00621759      -0.00335139 
O       0.92783034       3.81457845      11.09787637       0.00273058       0.00051449       0.00038745 
O       6.08763174       5.73153353      11.09538275      -0.00193456      -0.01858052      -0.00200141 
O       9.01287974       5.72418817      11.93487312       0.01604637      -0.00427753      -0.00158198 
O       3.86601294       3.83561522      11.88871578      -0.00177697      -0.00320583      -0.01200271 
O       7.56788859       3.82178911      10.44347669      -0.01636929      -0.00169896      -0.00238091 
O       2.37928582       5.74382032      10.45439079      -0.00714999      -0.01886474      -0.01016885 
O       0.85682230       5.76287249      13.20861750       0.00751561      -0.00138402      -0.01905520 
O       6.09225801       3.75296776      13.12653924      -0.01041758      -0.00012000       0.01188551 
Ti       4.07482497       3.67297578      13.74567129       0.00224027       0.01872260      -0.02482538 
Ti       9.38351979       5.69890338      13.76358322      -0.02178736      -0.00602649       0.01137785 
Ti       2.09875833       5.79167211      14.88260319      -0.01159533       0.00417399       0.00474678 
Ti       7.09394820       3.79126049      14.64734039       0.00010986      -0.01371016      -0.01122041 
O       2.31215161       3.78506386      14.37915493      -0.00254402       0.00920256       0.00701309 
O       7.52459958       5.68003478      14.58155757       0.00165968      -0.00867899      -0.00092412 
O      10.30031983       5.74076011      15.64145651      -0.00706861      -0.01400777       0.00208351 
O       5.14507951       3.82437997      15.50935720      -0.00023959       0.02214253      -0.00625727 
O       8.96782166       3.78305701      13.95573093      -0.00531696      -0.00404064      -0.01284134 
O       3.76149975       5.78253066      13.95956530      -0.00346424      -0.00811244      -0.00244576 
O       8.47657182       9.55586250       6.00000000      -1.89742075      -0.02030153       1.53728944 
O       3.30569868       7.64469000       6.00000000      -1.88132504      -0.01545731       1.59073333 
Ti       1.41275186       7.64469000       6.75295684       3.66863822       0.10115624       1.79588904 
Ti       6.58362500       9.55586250       6.75295684       3.86046593       0.11615946       1.98086214 
Ti       9.52224953       9.55586250       7.64087763      -1.91452277       0.10047814      -2.02317680 
Ti       4.35137640       7.64469000       7.64087763      -1.59853517       0.07127025      -1.70997659 
O       9.86155132       7.64469000       7.50591367       0.94431715      -0.11219959      -0.24104300 
O       4.69067818       9.55586250       7.50591367       0.89010595      -0.13275640      -0.20796290 
O       7.62930272       9.55586250       8.39383447      -0.82687724      -0.02866600      -0.55069907 
O       2.45842958       7.64469000       8.39383447      -0.85709302      -0.02780591      -0.62270546 
O       6.24432321       7.64469000       6.88792080      -0.23618038      -0.14330707      -0.68455885 
O       1.07345007       9.55586250       6.88792080      -0.17665459      -0.13525967      -0.74710693 
O       9.81339519       9.54604509       9.57372230       0.00390542      -0.00309253       0.01868578 
O       4.63917756       7.63617103       9.61403922      -0.00524908      -0.00278187      -0.01573313 
Ti       2.81484981       7.64581560      10.31937286      -0.00450421       0.00625280       0.01186132 
Ti       7.91930555       9.58417949      10.38506925       0.00325850      -0.00593545       0.00982148 
Ti       0.48162923       9.54530575      11.12156021       0.00313454      -0.00945567      -0.00772497 
Ti       5.74386029       7.62202013      11.23583689      -0.00706400       0.00489759       0.01884915 
O       0.89927764       7.64141840      11.08881511      -0.00528779      -0.00877452       0.00636235 
O       6.09730121       9.54860539      11.08366476      -0.00410366       0.00091364       0.01466613 
O       9.04020191       9.56462362      11.94117343       0.00561035      -0.00560346      -0.01153225 
O       3.85114945       7.64545364      11.96268664      -0.01152101      -0.01381025       0.00214412 
O       7.55903338       7.63132816      10.45716231      -0.00560439       0.00937190      -0.00977839 
O       2.39194923       9.53660700      10.44320907       0.00673177       0.00281593      -0.00553604 
O       0.95204795       9.55134461      13.07173130      -0.00459892      -0.00810028      -0.00136079 
O       6.04341023       7.65287446      13.20138800      -0.01000087      -0.00526956       0.00931518 
Ti       4.25357717       7.64937249      13.83077485       0.00366787      -0.02440895       0.01880826 
Ti       9.40509021       9.59536653      14.00011303      -0.01653354      -0.01088906       0.00711846 
Ti       1.85013798       9.55724923      14.60582520      -0.01059747      -0.01984949       0.00335235 
Ti       7.28440834       7.65350032      14.89657099      -0.01273000      -0.00731543       0.01085844 
O       2.35925902       7.68053589      14.84402278      -0.00673449      -0.01187254      -0.00533628 
O       7.58064825       9.58084330      14.81025577      -0.01110544      -0.00729348       0.00070539 
O       0.22271624       9.58090386      15.44433674       0.00000936      -0.01017214       0.01438136 
O       5.38717833       7.63785148      15.56074156      -0.00690713      -0.00276702       0.04766628 
O       9.00339721       7.65375546      13.95189605      -0.02761586      -0.01040936       0.01809071 
O       3.85365374       9.53375494      13.95410271      -0.01071032      -0.00156293       0.00023992 
V       8.94731563       5.78281224      16.81845003      -0.01191045      -0.00902392      -0.01522350 
V       3.82043000       3.82570416      16.78749398      -0.00399080      -0.00803238       0.01063879 
O       2.80315975       5.29978784      16.53579939       0.02074625      -0.00441411       0.00790757 
O       7.98693679       7.27179883      16.58396512      -0.00392734      -0.00443155      -0.01658565 
O       9.52684653       5.75976057      18.29278058      -0.00552964       0.00833948      -0.02445170 
O       4.49493061       3.83938081      18.23586113       0.00525292      -0.01490029       0.00878457 
O       2.82909419       2.35707587      16.55772233       0.00961176      -0.01282312       0.02699103 
O       7.92060758       4.20933785      16.69537500       0.04541891      -0.00214926       0.00550619 
H       7.95375986       3.55810525      17.43331325      -0.01558198       0.02762727       0.00212595 
H       5.08792368       7.46461515      16.47963557      -0.00124765      -0.00797532       0.01433221 
