
  ___ ___ ___ _ _ _  
 |   |   |_  | | | | 
 | | | | | . | | | | 
 |__ |  _|___|_____|  1.5.1
 |___|_|             

User:   siva@s91n63.grendel.cscaa.dk
Date:   Fri Feb 28 22:03:42 2020
Arch:   x86_64
Pid:    50853
Python: 3.6.3
gpaw:   /home/siva/gpaw-1.5.1/gpaw
_gpaw:  /home/siva/gpaw-1.5.1/build/bin.linux-x86_64-3.6/gpaw-python
ase:    /home/siva/env1.5/lib/python3.6/site-packages/ase (version 3.17.0)
numpy:  /home/siva/env1.5/lib/python3.6/site-packages/numpy (version 1.16.0)
scipy:  /home/siva/env1.5/lib/python3.6/site-packages/scipy (version 1.2.0)
units:  Angstrom and eV
cores:  36
Extra parameters: {'blacs': True}

Input parameters:
  basis: dzp
  kpts: [2 2 1]
  mode: {ecut: 500.0,
         gammacentered: False,
         name: pw}
  xc: PBE

System changes: positions, numbers, cell, pbc, initial_charges, initial_magmoms 

Initialize ...

O-setup:
  name: Oxygen
  id: 32ecd46bf208036f09c70b0ec9a88b78
  Z: 8
  valence: 6
  core: 2
  charge: 0.0
  file: /home/wido/sw/gpaw/basis/gpaw-setups-0.9.20000/O.PBE.gz
  cutoffs: 0.67(comp), 1.17(filt), 0.83(core), lmax=2
  valence states:
                energy  radius
    2s(2.00)   -23.961   0.688
    2p(4.00)    -9.029   0.598
    *s           3.251   0.688
    *p          18.182   0.598
    *d           0.000   0.619

  LCAO basis set for O:
    Name: dzp
    File: /home/wido/sw/gpaw/basis/gpaw-setups-0.9.20000/O.dzp.basis.gz
    Number of radial functions: 5
    Number of spherical harmonics: 13
      l=0, rc=4.3438 Bohr: 2s-sz confined orbital
      l=1, rc=5.3906 Bohr: 2p-sz confined orbital
      l=0, rc=2.2969 Bohr: 2s-dz split-valence wave
      l=1, rc=2.8906 Bohr: 2p-dz split-valence wave
      l=2, rc=5.3906 Bohr: d-type Gaussian polarization

Ti-setup:
  name: Titanium
  id: d282db07e62ae71292040bf25b25ccdd
  Z: 22
  valence: 12
  core: 10
  charge: 0.0
  file: /home/wido/sw/gpaw/basis/gpaw-setups-0.9.20000/Ti.PBE.gz
  cutoffs: 1.22(comp), 2.23(filt), 1.02(core), lmax=2
  valence states:
                energy  radius
    3s(2.00)   -62.623   1.270
    4s(2.00)    -4.466   1.270
    3p(6.00)   -38.862   1.058
    4p(0.00)    -1.466   1.058
    3d(2.00)    -4.258   1.058
    *d          22.953   1.058

  LCAO basis set for Ti:
    Name: dzp
    File: /home/wido/sw/gpaw/basis/gpaw-setups-0.9.20000/Ti.dzp.basis.gz
    Number of radial functions: 11
    Number of spherical harmonics: 29
      l=0, rc=3.4375 Bohr: 3s-sz confined orbital
      l=0, rc=9.9062 Bohr: 4s-sz confined orbital
      l=1, rc=3.8906 Bohr: 3p-sz confined orbital
      l=1, rc=13.1094 Bohr: 4p-sz confined orbital
      l=2, rc=6.6250 Bohr: 3d-sz confined orbital
      l=0, rc=2.1406 Bohr: 3s-dz split-valence wave
      l=0, rc=6.0156 Bohr: 4s-dz split-valence wave
      l=1, rc=2.3125 Bohr: 3p-dz split-valence wave
      l=1, rc=8.1094 Bohr: 4p-dz split-valence wave
      l=2, rc=3.8594 Bohr: 3d-dz split-valence wave
      l=1, rc=9.9062 Bohr: p-type Gaussian polarization

V-setup:
  name: Vanadium
  id: a8354638d66c808f8c867a10b63fd727
  Z: 23
  valence: 13
  core: 10
  charge: 0.0
  file: /home/wido/sw/gpaw/basis/gpaw-setups-0.9.20000/V.PBE.gz
  cutoffs: 1.19(comp), 2.14(filt), 0.96(core), lmax=2
  valence states:
                energy  radius
    3s(2.00)   -70.222   1.254
    4s(2.00)    -4.702   1.254
    3p(6.00)   -44.043   1.281
    4p(0.00)    -1.444   1.281
    3d(3.00)    -5.164   1.169
    *d          22.047   1.169

  LCAO basis set for V:
    Name: dzp
    File: /home/wido/sw/gpaw/basis/gpaw-setups-0.9.20000/V.dzp.basis.gz
    Number of radial functions: 11
    Number of spherical harmonics: 29
      l=0, rc=3.2656 Bohr: 3s-sz confined orbital
      l=0, rc=9.5312 Bohr: 4s-sz confined orbital
      l=1, rc=3.6719 Bohr: 3p-sz confined orbital
      l=1, rc=12.8750 Bohr: 4p-sz confined orbital
      l=2, rc=6.0938 Bohr: 3d-sz confined orbital
      l=0, rc=2.0625 Bohr: 3s-dz split-valence wave
      l=0, rc=5.7656 Bohr: 4s-dz split-valence wave
      l=1, rc=2.4062 Bohr: 3p-dz split-valence wave
      l=1, rc=7.8906 Bohr: 4p-dz split-valence wave
      l=2, rc=3.6562 Bohr: 3d-dz split-valence wave
      l=1, rc=9.5312 Bohr: p-type Gaussian polarization

H-setup:
  name: Hydrogen
  id: d65de229564ff8ea4db303e23b6d1ecf
  Z: 1
  valence: 1
  core: 0
  charge: 0.0
  file: /home/wido/sw/gpaw/basis/gpaw-setups-0.9.20000/H.PBE.gz
  cutoffs: 0.48(comp), 0.85(filt), 0.53(core), lmax=2
  valence states:
                energy  radius
    1s(1.00)    -6.494   0.476
    *s          20.717   0.476
    *p           0.000   0.476

  LCAO basis set for H:
    Name: dzp
    File: /home/wido/sw/gpaw/basis/gpaw-setups-0.9.20000/H.dzp.basis.gz
    Number of radial functions: 3
    Number of spherical harmonics: 5
      l=0, rc=6.4219 Bohr: 1s-sz confined orbital
      l=0, rc=3.6094 Bohr: 1s-dz split-valence wave
      l=1, rc=6.4219 Bohr: p-type Gaussian polarization

Reference energy: -935653.237240

Spin-paired calculation

Occupation numbers:
  Fermi-Dirac: width=0.1000 eV

Convergence criteria:
  Maximum total energy change: 0.0005 eV / electron
  Maximum integral of absolute density change: 0.0001 electrons
  Maximum integral of absolute eigenstate change: 4e-08 eV^2
  Maximum number of iterations: 333

Symmetries present (total): 1

  ( 1  0  0)
  ( 0  1  0)
  ( 0  0  1)

4 k-points: 2 x 2 x 1 Monkhorst-Pack grid
2 k-points in the irreducible part of the Brillouin zone
       k-points in crystal coordinates                weights
   0:     0.25000000   -0.25000000    0.00000000          2/4
   1:     0.25000000    0.25000000    0.00000000          2/4

Wave functions: Plane wave expansion
  Cutoff energy: 500.000 eV
  Number of coefficients (min, max): 94343, 94343
  Pulay-stress correction: 0.000000 eV/Ang^3 (de/decut=0.000000)
  Using FFTW library
  ScaLapack parameters: grid=1x1, blocksize=None
  Wavefunction extrapolation:
    Improved wavefunction reuse through dual PAW basis 

Eigensolver
   Davidson(niter=2, smin=None, normalize=True) 

Densities:
  Coarse grid: 54*80*125 grid
  Fine grid: 108*160*250 grid
  Total Charge: 0.000000 

Density mixing:
  Method: separate
  Backend: pulay
  Linear mixing parameter: 0.05
  Mixing with 5 old densities
  Damping of long wave oscillations: 50 

Hamiltonian:
  XC and Coulomb potentials evaluated on a 108*160*250 grid
  Using the PBE Exchange-Correlation functional
 

XC parameters: PBE with 2 nearest neighbor stencil

Memory estimate:
  Process memory now: 326.63 MiB
  Calculator: 1530.57 MiB
    Density: 18.56 MiB
      Arrays: 6.07 MiB
      Localized functions: 10.15 MiB
      Mixer: 2.34 MiB
    Hamiltonian: 4.26 MiB
      Arrays: 3.97 MiB
      XC: 0.00 MiB
      Poisson: 0.00 MiB
      vbar: 0.29 MiB
    Wavefunctions: 1507.74 MiB
      Arrays psit_nG: 719.78 MiB
      Eigensolver: 765.14 MiB
      Projections: 0.64 MiB
      Projectors: 1.16 MiB
      PW-descriptor: 21.02 MiB

Total number of cores used: 36
Parallelization over k-points: 2
Domain decomposition: 2 x 3 x 3

Number of atoms: 105
Number of atomic orbitals: 1893
Number of bands in calculation: 500
Bands to converge: occupied states only
Number of valence electrons: 826

... initialized

Initializing position-dependent things.

Density initialized from atomic densities
Creating initial wave functions:
  500 bands from LCAO basis set

          .------------------------.  
         /|                        |  
        / |                        |  
       /  |                        |  
      /   |                        |  
     /    |                        |  
    /     |                        |  
   /      |                        |  
  /       |                        |  
 *        |                        |  
 |        |                        |  
 |        |                        |  
 |        |                    O   |  
 |        O    H  O         O      |  
 |        |   Oi      O  H  OV     |  
 |      O |   O V  O      Oi     Ti|  
 |        | TO     Oi     O   O    |  
 |   O    |      O     OTi    TiO  |  
 |        OTO     O         O      |  
 |        Oi  O TiO  OTi O   Ti    |  
 |  O  O  |O   Ti     Ti   OTiO  O |  
 |      Tii OO OO    OO   O        |  
 |      OO|       OTii    Tii      |  
 |   OTi  | Tii     O   OO     O   |  
 |    O   |O     OTi     Oi        |  
 |  Ti    TO   O  O    O     O     |  
 |  O    O|     Ti    Ti           |  
 |       Ti         O      O       |  
 |        |  O                     |  
 |        .------------------------.  
 |       /                        /   
 |      /                        /    
 |     /                        /     
 |    /                        /      
 |   /                        /       
 |  /                        /        
 | /                        /         
 |/                        /          
 *------------------------*           

Positions:
   0 O      9.974517    2.862499    7.395923    ( 0.0000,  0.0000,  0.0000)
   1 O      4.751576    0.970856    7.433844    ( 0.0000,  0.0000,  0.0000)
   2 Ti     2.973752    0.965511    8.331948    ( 0.0000,  0.0000,  0.0000)
   3 Ti     8.189404    2.803522    8.288172    ( 0.0000,  0.0000,  0.0000)
   4 Ti     0.613369    2.836809    8.994488    ( 0.0000,  0.0000,  0.0000)
   5 Ti     5.856682    0.938662    8.958328    ( 0.0000,  0.0000,  0.0000)
   6 O      1.063899    0.953977    8.954538    ( 0.0000,  0.0000,  0.0000)
   7 O      6.332739    2.842687    8.933688    ( 0.0000,  0.0000,  0.0000)
   8 O      9.254147    2.761528    9.821154    ( 0.0000,  0.0000,  0.0000)
   9 O      4.054529    0.983467    9.850791    ( 0.0000,  0.0000,  0.0000)
  10 O      7.750782    0.923741    8.323928    ( 0.0000,  0.0000,  0.0000)
  11 O      2.518424    2.887861    8.350100    ( 0.0000,  0.0000,  0.0000)
  12 O      1.092125    2.889953   11.034028    ( 0.0000,  0.0000,  0.0000)
  13 O      6.267596    0.961638   10.990229    ( 0.0000,  0.0000,  0.0000)
  14 Ti     4.405045    0.958723   11.964861    ( 0.0000,  0.0000,  0.0000)
  15 Ti     9.578030    2.827708   11.972631    ( 0.0000,  0.0000,  0.0000)
  16 Ti     2.017050    2.855324   12.556724    ( 0.0000,  0.0000,  0.0000)
  17 Ti     7.203902    0.939632   12.510229    ( 0.0000,  0.0000,  0.0000)
  18 O      2.551413    0.959618   12.759471    ( 0.0000,  0.0000,  0.0000)
  19 O      7.734802    2.844509   12.802438    ( 0.0000,  0.0000,  0.0000)
  20 O      0.368697    2.852199   13.409892    ( 0.0000,  0.0000,  0.0000)
  21 O      5.573617    0.952938   13.382263    ( 0.0000,  0.0000,  0.0000)
  22 O      9.179299    0.943850   11.982475    ( 0.0000,  0.0000,  0.0000)
  23 O      3.985051    2.897415   12.007947    ( 0.0000,  0.0000,  0.0000)
  24 O      9.990889    6.696232    7.341894    ( 0.0000,  0.0000,  0.0000)
  25 O      4.511960    4.787917    8.184082    ( 0.0000,  0.0000,  0.0000)
  26 Ti     2.724858    4.779771    7.960807    ( 0.0000,  0.0000,  0.0000)
  27 Ti     8.145479    6.707698    8.192011    ( 0.0000,  0.0000,  0.0000)
  28 Ti     0.630398    6.695439    9.077253    ( 0.0000,  0.0000,  0.0000)
  29 Ti     6.062248    4.766294    9.148169    ( 0.0000,  0.0000,  0.0000)
  30 O      1.023957    4.767147    8.931551    ( 0.0000,  0.0000,  0.0000)
  31 O      6.358432    6.708779    8.938070    ( 0.0000,  0.0000,  0.0000)
  32 O      9.235162    6.764411    9.751167    ( 0.0000,  0.0000,  0.0000)
  33 O      7.850578    4.773562    8.386917    ( 0.0000,  0.0000,  0.0000)
  34 O      2.498268    6.663844    8.333080    ( 0.0000,  0.0000,  0.0000)
  35 O      0.998194    6.556366   11.110401    ( 0.0000,  0.0000,  0.0000)
  36 O      5.792539    4.759975   10.935232    ( 0.0000,  0.0000,  0.0000)
  37 Ti     4.472828    4.745426   12.270841    ( 0.0000,  0.0000,  0.0000)
  38 Ti     9.445396    6.660188   11.716908    ( 0.0000,  0.0000,  0.0000)
  39 Ti     2.112427    6.627521   12.619916    ( 0.0000,  0.0000,  0.0000)
  40 Ti     7.490663    4.769151   13.132903    ( 0.0000,  0.0000,  0.0000)
  41 O      2.518271    4.741339   12.955585    ( 0.0000,  0.0000,  0.0000)
  42 O      7.665225    6.667639   12.589831    ( 0.0000,  0.0000,  0.0000)
  43 O      0.114947    6.730047   13.480656    ( 0.0000,  0.0000,  0.0000)
  44 O      5.666336    4.793749   13.596222    ( 0.0000,  0.0000,  0.0000)
  45 O      9.094996    4.757329   11.868554    ( 0.0000,  0.0000,  0.0000)
  46 O      3.864855    6.572592   11.861983    ( 0.0000,  0.0000,  0.0000)
  47 O      9.941219   10.526766    7.424162    ( 0.0000,  0.0000,  0.0000)
  48 O      4.793812    8.598035    7.389240    ( 0.0000,  0.0000,  0.0000)
  49 Ti     2.924043    8.598447    8.231525    ( 0.0000,  0.0000,  0.0000)
  50 Ti     8.168624   10.568713    8.307193    ( 0.0000,  0.0000,  0.0000)
  51 Ti     0.689842   10.519812    9.160804    ( 0.0000,  0.0000,  0.0000)
  52 Ti     5.895270    8.633917    8.910762    ( 0.0000,  0.0000,  0.0000)
  53 O      1.085423    8.597422    8.995679    ( 0.0000,  0.0000,  0.0000)
  54 O      6.252646   10.528029    8.921193    ( 0.0000,  0.0000,  0.0000)
  55 O      9.220059   10.568411    9.844708    ( 0.0000,  0.0000,  0.0000)
  56 O      4.059029    8.507535    9.748930    ( 0.0000,  0.0000,  0.0000)
  57 O      7.758726    8.628199    8.273162    ( 0.0000,  0.0000,  0.0000)
  58 O      2.566398   10.490594    8.371621    ( 0.0000,  0.0000,  0.0000)
  59 O      1.046869   10.535114   11.113053    ( 0.0000,  0.0000,  0.0000)
  60 O      6.205999    8.633712   11.069797    ( 0.0000,  0.0000,  0.0000)
  61 Ti     4.281039    8.679682   11.649472    ( 0.0000,  0.0000,  0.0000)
  62 Ti     9.630672   10.526811   11.949616    ( 0.0000,  0.0000,  0.0000)
  63 Ti     2.065658   10.529317   12.855128    ( 0.0000,  0.0000,  0.0000)
  64 Ti     7.232344    8.662613   12.598809    ( 0.0000,  0.0000,  0.0000)
  65 O      2.501218    8.560054   12.461331    ( 0.0000,  0.0000,  0.0000)
  66 O      7.659776   10.515135   12.777278    ( 0.0000,  0.0000,  0.0000)
  67 O      0.344631   10.459241   13.479847    ( 0.0000,  0.0000,  0.0000)
  68 O      5.280029    8.588587   13.443192    ( 0.0000,  0.0000,  0.0000)
  69 O      9.048376    8.614278   11.860402    ( 0.0000,  0.0000,  0.0000)
  70 O      3.989779   10.510721   11.814333    ( 0.0000,  0.0000,  0.0000)
  71 O      9.924325   14.342583    7.441007    ( 0.0000,  0.0000,  0.0000)
  72 O      4.751345   12.420255    7.419069    ( 0.0000,  0.0000,  0.0000)
  73 Ti     2.956521   12.425773    8.321746    ( 0.0000,  0.0000,  0.0000)
  74 Ti     8.154962   14.365639    8.334509    ( 0.0000,  0.0000,  0.0000)
  75 Ti     0.650324   14.339133    8.977444    ( 0.0000,  0.0000,  0.0000)
  76 Ti     5.825252   12.455807    8.942724    ( 0.0000,  0.0000,  0.0000)
  77 O      1.076745   12.417342    8.959204    ( 0.0000,  0.0000,  0.0000)
  78 O      6.230080   14.350295    8.927239    ( 0.0000,  0.0000,  0.0000)
  79 O      9.212773   14.346204    9.869863    ( 0.0000,  0.0000,  0.0000)
  80 O      4.047363   12.465565    9.835258    ( 0.0000,  0.0000,  0.0000)
  81 O      7.738576   12.452498    8.352645    ( 0.0000,  0.0000,  0.0000)
  82 O      2.551770   14.335367    8.361171    ( 0.0000,  0.0000,  0.0000)
  83 O      1.079840   14.333331   11.019148    ( 0.0000,  0.0000,  0.0000)
  84 O      6.260151   12.442487   10.972905    ( 0.0000,  0.0000,  0.0000)
  85 Ti     4.388186   12.434765   11.925246    ( 0.0000,  0.0000,  0.0000)
  86 Ti     9.584844   14.316764   11.992637    ( 0.0000,  0.0000,  0.0000)
  87 Ti     2.034816   14.340138   12.522519    ( 0.0000,  0.0000,  0.0000)
  88 Ti     7.178490   12.426397   12.494445    ( 0.0000,  0.0000,  0.0000)
  89 O      2.556275   12.432462   12.757668    ( 0.0000,  0.0000,  0.0000)
  90 O      7.711947   14.330115   12.746167    ( 0.0000,  0.0000,  0.0000)
  91 O      0.413180   14.330589   13.410225    ( 0.0000,  0.0000,  0.0000)
  92 O      5.548636   12.409374   13.358424    ( 0.0000,  0.0000,  0.0000)
  93 O      9.174929   12.405969   12.010699    ( 0.0000,  0.0000,  0.0000)
  94 O      4.001800   14.349122   11.952110    ( 0.0000,  0.0000,  0.0000)
  95 V      4.113673    8.632190   14.795820    ( 0.0000,  0.0000,  0.0000)
  96 O      2.957523   10.125058   14.627513    ( 0.0000,  0.0000,  0.0000)
  97 O      3.256552    7.048371   14.700857    ( 0.0000,  0.0000,  0.0000)
  98 O      4.856221    8.768154   16.190011    ( 0.0000,  0.0000,  0.0000)
  99 V      9.204445   10.566639   14.711170    ( 0.0000,  0.0000,  0.0000)
 100 O      9.862455   10.540852   16.156501    ( 0.0000,  0.0000,  0.0000)
 101 O      8.107478    9.013486   14.595796    ( 0.0000,  0.0000,  0.0000)
 102 O      8.280576   12.020247   14.506099    ( 0.0000,  0.0000,  0.0000)
 103 H      8.055794    8.400084   15.352635    ( 0.0000,  0.0000,  0.0000)
 104 H      2.991685   10.816250   15.316476    ( 0.0000,  0.0000,  0.0000)

Unit cell:
           periodic     x           y           z      points  spacing
  1. axis:    yes   10.341746    0.000000    0.000000    54     0.1915
  2. axis:    yes   -0.000000   15.289380    0.000000    80     0.1911
  3. axis:    yes    0.000000    0.000000   23.497201   125     0.1880

  Lengths:  10.341746  15.289380  23.497201
  Angles:   90.000000  90.000000  90.000000

Effective grid spacing dv^(1/3) = 0.1902

                     log10-error:    total        iterations:
           time      wfs    density  energy       fermi  poisson
iter:   1  22:04:55  -0.10   +inf  -975.981263    3             
iter:   2  22:05:10  -0.97  -0.95  -933.089292    5             
iter:   3  22:05:25  +0.36  -1.00  -857.037474    36            
iter:   4  22:05:40  -0.33  -1.28  -856.115262    34            
iter:   5  22:05:56  -1.17  -1.33  -856.480191    34            
iter:   6  22:06:11  -1.61  -1.35  -857.510411    31            
iter:   7  22:06:26  -1.24  -1.38  -858.889751    33            
iter:   8  22:06:41  -1.23  -1.51  -856.506586    35            
iter:   9  22:06:56  -2.01  -1.71  -856.226303    33            
iter:  10  22:07:11  -1.89  -1.79  -855.696315    3             
iter:  11  22:07:26  -2.61  -1.96  -855.061793    5             
iter:  12  22:07:42  -2.55  -2.09  -854.910556    4             
iter:  13  22:07:57  -2.66  -2.23  -854.948098    4             
iter:  14  22:08:12  -2.87  -2.32  -854.887937    4             
iter:  15  22:08:27  -3.13  -2.41  -854.853022    3             
iter:  16  22:08:42  -3.63  -2.51  -854.845754    3             
iter:  17  22:08:57  -3.41  -2.62  -854.825983    4             
iter:  18  22:09:12  -3.81  -2.86  -854.829454    4             
iter:  19  22:09:28  -4.31  -3.00  -854.819311    3             
iter:  20  22:09:43  -4.62  -3.09  -854.819956    3             
iter:  21  22:09:58  -4.22  -3.17  -854.818328    2             
iter:  22  22:10:13  -5.13  -3.35  -854.818244    2             
iter:  23  22:10:28  -5.46  -3.43  -854.817715    2             
iter:  24  22:10:44  -5.70  -3.49  -854.817700    2             
iter:  25  22:10:59  -5.23  -3.55  -854.817693    3             
iter:  26  22:11:14  -5.63  -3.80  -854.817184    3             
iter:  27  22:11:29  -6.24  -3.95  -854.817415    2             
iter:  28  22:11:44  -6.29  -4.04  -854.817193    2             
iter:  29  22:11:59  -6.54  -4.17  -854.817308    2             
iter:  30  22:12:14  -6.80  -4.26  -854.817272    2             
iter:  31  22:12:30  -7.18  -4.32  -854.817271    2             
iter:  32  22:12:45  -7.51  -4.38  -854.817277    2             

Converged after 32 iterations.

Dipole moment: (-2.717297, -0.708611, -1.090713) |e|*Ang

Energy contributions relative to reference atoms: (reference = -935653.237240)

Kinetic:       +611.955497
Potential:     -777.507824
External:        +0.000000
XC:            -695.272357
Entropy (-ST):   -0.558543
Local:           +6.286678
--------------------------
Free energy:   -855.096549
Extrapolated:  -854.817277

Fermi level: -1.36448

Showing all kpts
 Kpt  Band  Eigenvalues  Occupancy
  0   411     -2.68701    1.00000
  0   412     -1.28252    0.30584
  0   413     -1.25089    0.24306
  0   414     -1.20240    0.16509

  1   411     -2.68711    1.00000
  1   412     -1.28385    0.30867
  1   413     -1.24036    0.22423
  1   414     -1.21143    0.17791



Forces in eV/Ang:
  0 O    -1.53845   -0.10758    1.24290
  1 O    -1.04356    0.01628    1.26217
  2 Ti    2.55636    0.01776    1.18561
  3 Ti    2.67366    0.29448    0.79920
  4 Ti   -0.02804    0.15256   -1.36522
  5 Ti   -1.80673    0.13881   -1.02744
  6 O     0.31537   -0.10369   -0.01414
  7 O     0.14295    0.27611   -0.23061
  8 O    -1.45827    0.01583    0.26964
  9 O    -0.72181   -0.04860   -0.07286
 10 O     0.19994    0.45913   -1.06389
 11 O     0.43952   -0.18107   -1.03358
 12 O    -0.09239   -0.04247   -0.09476
 13 O    -0.01920    0.02996   -0.04071
 14 Ti    0.00319    0.13551    0.06806
 15 Ti    0.29614    0.20995   -0.04677
 16 Ti    0.12809    0.54116    0.16814
 17 Ti    0.02083   -0.46950    0.02763
 18 O     0.02004   -0.15177   -0.01815
 19 O    -0.05482    0.46526    0.36906
 20 O    -0.19095   -0.05707   -0.04441
 21 O    -0.02953    0.01861   -0.03412
 22 O    -0.01383    0.05570   -0.01453
 23 O     0.05538   -0.20426   -0.05865
 24 O    -1.61895   -0.06589    2.04378
 25 O    -0.18263   -0.03185   -0.20485
 26 Ti   -0.26249    0.07319    0.79578
 27 Ti    3.67552    0.58481    0.44807
 28 Ti    0.01434   -0.04918   -2.01814
 29 Ti   -0.51402    0.17849    0.44621
 30 O     0.29391    0.02443   -0.00166
 31 O    -0.20863   -0.35694   -0.11049
 32 O    -1.76167   -0.00767    0.15981
 33 O    -0.10537   -0.26591   -0.86144
 34 O     0.50527    0.14490   -1.15045
 35 O     0.28836   -0.00869   -1.24921
 36 O     0.10066   -0.06564   -0.22166
 37 Ti   -0.70448    0.52073    0.10877
 38 Ti    2.20766    0.28736    4.10047
 39 Ti   -2.45382   -0.09119    2.09435
 40 Ti   -0.31635    0.55973   -1.63667
 41 O     0.29663   -0.59907   -0.34020
 42 O    -0.77043   -0.49708    0.92362
 43 O     0.76149   -0.18541   -2.71959
 44 O     1.08000   -0.08074    0.37020
 45 O    -0.59464   -0.84137    0.33279
 46 O     0.73821   -0.06015   -0.41899
 47 O    -1.46054    0.02391    2.20258
 48 O    -1.03765   -0.01156    1.23636
 49 Ti    2.54292   -0.12362    1.05515
 50 Ti    3.70335   -0.18087    0.25526
 51 Ti   -1.35188   -0.02807   -2.40718
 52 Ti   -1.31839    0.07849   -1.16993
 53 O     0.28683    0.06004    0.09085
 54 O    -0.01571   -0.10637   -0.08867
 55 O    -0.80772   -0.10763    0.68052
 56 O    -0.87279    0.06776    0.11794
 57 O     0.14970   -0.09766   -0.81626
 58 O     0.21948    0.05035   -0.74653
 59 O     0.12480    0.11210    0.81125
 60 O    -0.13674    0.11532   -0.14969
 61 Ti   -0.01350   -0.73332    0.37635
 62 Ti   -1.56305   -0.06996   -3.55534
 63 Ti    1.80976   -0.45115   -2.40879
 64 Ti    0.14038   -0.28496    0.16124
 65 O     0.07090    1.40448    0.24835
 66 O     0.39785   -0.61539   -1.79992
 67 O    -0.98615    0.10330    1.92209
 68 O     1.01170    0.18147   -0.92058
 69 O    -0.05129    0.84458   -0.07260
 70 O    -0.40488    0.24263    0.39070
 71 O    -1.10763    0.03150    1.33249
 72 O    -1.20180    0.06774    1.17638
 73 Ti    2.69310   -0.04964    0.98856
 74 Ti    2.90019   -1.00822    0.98075
 75 Ti   -1.06890   -0.11038   -1.16904
 76 Ti   -1.06309   -0.45492   -1.13435
 77 O     0.24440    0.04797    0.09691
 78 O     0.22104    0.10796   -0.16232
 79 O    -0.71308   -0.00462   -0.07649
 80 O    -0.86910   -0.04952   -0.08937
 81 O     0.03574    0.19329   -0.92173
 82 O     0.21854    0.18777   -0.93565
 83 O     0.05804   -0.02776   -0.00953
 84 O    -0.41441   -0.04109   -0.60083
 85 Ti    0.60134    0.13893    0.00158
 86 Ti   -0.28965   -0.07204    0.15842
 87 Ti   -0.11533    0.38652   -0.05814
 88 Ti    0.96113    0.18719    2.08600
 89 O    -0.24078   -0.50723    0.36287
 90 O     0.02084    0.40271   -0.35804
 91 O     0.16691   -0.04116   -0.00888
 92 O    -0.66650   -0.02742   -0.30867
 93 O     0.49642   -0.23788   -0.59908
 94 O    -0.04487   -0.08550    0.01700
 95 V    -1.76913   -3.91389    0.15157
 96 O    -0.39496    0.68418    0.08711
 97 O     0.82813    2.69956   -0.42808
 98 O     0.25938    0.04779    0.33466
 99 V    -2.36272    1.74600    1.00899
100 O     0.11555   -0.00473    0.27044
101 O    -0.14591   -0.35595    0.31847
102 O     1.44393   -1.25131    0.92915
103 H     0.13987   -0.02382    0.03823
104 H     0.03066   -0.02938    0.07023

System changes: positions 

Initializing position-dependent things.

Density initialized from wave functions
          .------------------------.  
         /|                        |  
        / |                        |  
       /  |                        |  
      /   |                        |  
     /    |                        |  
    /     |                        |  
   /      |                        |  
  /       |                        |  
 *        |                        |  
 |        |                        |  
 |        |                        |  
 |        |                    O   |  
 |        O    H  O         O      |  
 |        |   Oi      O  H  OV     |  
 |      O |   O V  O      Oi     Ti|  
 |        | TO     Oi     O   O    |  
 |   O    |      O     OTi    TiO  |  
 |        OTO     O         O      |  
 |        Oi  O TiO  OTi O   Ti    |  
 |  O  O  |O   Ti     Ti   OTiO  O |  
 |      Tii OO OO    OO   O        |  
 |      OO|       OTii    Tii      |  
 |   OTi  | Tii     O   OO     O   |  
 |    O   |O     OTi     Oi        |  
 |  Ti    TO   O  O    O     O     |  
 |  O    O|     Ti    Ti           |  
 |       Ti         O      O       |  
 |        |  O                     |  
 |        .------------------------.  
 |       /                        /   
 |      /                        /    
 |     /                        /     
 |    /                        /      
 |   /                        /       
 |  /                        /        
 | /                        /         
 |/                        /          
 *------------------------*           

Positions:
   0 O      9.974517    2.862499    7.395923    ( 0.0000,  0.0000,  0.0000)
   1 O      4.751576    0.970856    7.433844    ( 0.0000,  0.0000,  0.0000)
   2 Ti     2.973752    0.965511    8.331948    ( 0.0000,  0.0000,  0.0000)
   3 Ti     8.189404    2.803522    8.288172    ( 0.0000,  0.0000,  0.0000)
   4 Ti     0.613369    2.836809    8.994488    ( 0.0000,  0.0000,  0.0000)
   5 Ti     5.856682    0.938662    8.958328    ( 0.0000,  0.0000,  0.0000)
   6 O      1.063899    0.953977    8.954538    ( 0.0000,  0.0000,  0.0000)
   7 O      6.332739    2.842687    8.933688    ( 0.0000,  0.0000,  0.0000)
   8 O      9.254147    2.761528    9.821154    ( 0.0000,  0.0000,  0.0000)
   9 O      4.054529    0.983467    9.850791    ( 0.0000,  0.0000,  0.0000)
  10 O      7.750782    0.923741    8.323928    ( 0.0000,  0.0000,  0.0000)
  11 O      2.518424    2.887861    8.350100    ( 0.0000,  0.0000,  0.0000)
  12 O      1.091333    2.889589   11.033216    ( 0.0000,  0.0000,  0.0000)
  13 O      6.267432    0.961895   10.989880    ( 0.0000,  0.0000,  0.0000)
  14 Ti     4.405072    0.959885   11.965445    ( 0.0000,  0.0000,  0.0000)
  15 Ti     9.580569    2.829508   11.972230    ( 0.0000,  0.0000,  0.0000)
  16 Ti     2.018148    2.859963   12.558165    ( 0.0000,  0.0000,  0.0000)
  17 Ti     7.204081    0.935607   12.510466    ( 0.0000,  0.0000,  0.0000)
  18 O      2.551585    0.958317   12.759316    ( 0.0000,  0.0000,  0.0000)
  19 O      7.734332    2.848497   12.805602    ( 0.0000,  0.0000,  0.0000)
  20 O      0.367060    2.851709   13.409512    ( 0.0000,  0.0000,  0.0000)
  21 O      5.573364    0.953098   13.381970    ( 0.0000,  0.0000,  0.0000)
  22 O      9.179181    0.944328   11.982351    ( 0.0000,  0.0000,  0.0000)
  23 O      3.985526    2.895664   12.007444    ( 0.0000,  0.0000,  0.0000)
  24 O      9.990889    6.696232    7.341894    ( 0.0000,  0.0000,  0.0000)
  25 O      4.511960    4.787917    8.184082    ( 0.0000,  0.0000,  0.0000)
  26 Ti     2.724858    4.779771    7.960807    ( 0.0000,  0.0000,  0.0000)
  27 Ti     8.145479    6.707698    8.192011    ( 0.0000,  0.0000,  0.0000)
  28 Ti     0.630398    6.695439    9.077253    ( 0.0000,  0.0000,  0.0000)
  29 Ti     6.062248    4.766294    9.148169    ( 0.0000,  0.0000,  0.0000)
  30 O      1.023957    4.767147    8.931551    ( 0.0000,  0.0000,  0.0000)
  31 O      6.358432    6.708779    8.938070    ( 0.0000,  0.0000,  0.0000)
  32 O      9.235162    6.764411    9.751167    ( 0.0000,  0.0000,  0.0000)
  33 O      7.850578    4.773562    8.386917    ( 0.0000,  0.0000,  0.0000)
  34 O      2.498268    6.663844    8.333080    ( 0.0000,  0.0000,  0.0000)
  35 O      1.000666    6.556291   11.099692    ( 0.0000,  0.0000,  0.0000)
  36 O      5.793402    4.759412   10.933331    ( 0.0000,  0.0000,  0.0000)
  37 Ti     4.466788    4.749890   12.271774    ( 0.0000,  0.0000,  0.0000)
  38 Ti     9.464322    6.662652   11.752061    ( 0.0000,  0.0000,  0.0000)
  39 Ti     2.091391    6.626739   12.637870    ( 0.0000,  0.0000,  0.0000)
  40 Ti     7.487951    4.773950   13.118872    ( 0.0000,  0.0000,  0.0000)
  41 O      2.520814    4.736203   12.952668    ( 0.0000,  0.0000,  0.0000)
  42 O      7.658620    6.663377   12.597749    ( 0.0000,  0.0000,  0.0000)
  43 O      0.121475    6.728458   13.457341    ( 0.0000,  0.0000,  0.0000)
  44 O      5.675595    4.793056   13.599396    ( 0.0000,  0.0000,  0.0000)
  45 O      9.089898    4.750116   11.871407    ( 0.0000,  0.0000,  0.0000)
  46 O      3.871184    6.572077   11.858391    ( 0.0000,  0.0000,  0.0000)
  47 O      9.941219   10.526766    7.424162    ( 0.0000,  0.0000,  0.0000)
  48 O      4.793812    8.598035    7.389240    ( 0.0000,  0.0000,  0.0000)
  49 Ti     2.924043    8.598447    8.231525    ( 0.0000,  0.0000,  0.0000)
  50 Ti     8.168624   10.568713    8.307193    ( 0.0000,  0.0000,  0.0000)
  51 Ti     0.689842   10.519812    9.160804    ( 0.0000,  0.0000,  0.0000)
  52 Ti     5.895270    8.633917    8.910762    ( 0.0000,  0.0000,  0.0000)
  53 O      1.085423    8.597422    8.995679    ( 0.0000,  0.0000,  0.0000)
  54 O      6.252646   10.528029    8.921193    ( 0.0000,  0.0000,  0.0000)
  55 O      9.220059   10.568411    9.844708    ( 0.0000,  0.0000,  0.0000)
  56 O      4.059029    8.507535    9.748930    ( 0.0000,  0.0000,  0.0000)
  57 O      7.758726    8.628199    8.273162    ( 0.0000,  0.0000,  0.0000)
  58 O      2.566398   10.490594    8.371621    ( 0.0000,  0.0000,  0.0000)
  59 O      1.047939   10.536075   11.120008    ( 0.0000,  0.0000,  0.0000)
  60 O      6.204827    8.634701   11.068514    ( 0.0000,  0.0000,  0.0000)
  61 Ti     4.280923    8.673396   11.652698    ( 0.0000,  0.0000,  0.0000)
  62 Ti     9.617272   10.526211   11.919137    ( 0.0000,  0.0000,  0.0000)
  63 Ti     2.081173   10.525450   12.834478    ( 0.0000,  0.0000,  0.0000)
  64 Ti     7.233547    8.660170   12.600191    ( 0.0000,  0.0000,  0.0000)
  65 O      2.501826    8.572094   12.463460    ( 0.0000,  0.0000,  0.0000)
  66 O      7.663186   10.509859   12.761847    ( 0.0000,  0.0000,  0.0000)
  67 O      0.336177   10.460127   13.496325    ( 0.0000,  0.0000,  0.0000)
  68 O      5.288702    8.590143   13.435300    ( 0.0000,  0.0000,  0.0000)
  69 O      9.047936    8.621518   11.859780    ( 0.0000,  0.0000,  0.0000)
  70 O      3.986308   10.512801   11.817682    ( 0.0000,  0.0000,  0.0000)
  71 O      9.924325   14.342583    7.441007    ( 0.0000,  0.0000,  0.0000)
  72 O      4.751345   12.420255    7.419069    ( 0.0000,  0.0000,  0.0000)
  73 Ti     2.956521   12.425773    8.321746    ( 0.0000,  0.0000,  0.0000)
  74 Ti     8.154962   14.365639    8.334509    ( 0.0000,  0.0000,  0.0000)
  75 Ti     0.650324   14.339133    8.977444    ( 0.0000,  0.0000,  0.0000)
  76 Ti     5.825252   12.455807    8.942724    ( 0.0000,  0.0000,  0.0000)
  77 O      1.076745   12.417342    8.959204    ( 0.0000,  0.0000,  0.0000)
  78 O      6.230080   14.350295    8.927239    ( 0.0000,  0.0000,  0.0000)
  79 O      9.212773   14.346204    9.869863    ( 0.0000,  0.0000,  0.0000)
  80 O      4.047363   12.465565    9.835258    ( 0.0000,  0.0000,  0.0000)
  81 O      7.738576   12.452498    8.352645    ( 0.0000,  0.0000,  0.0000)
  82 O      2.551770   14.335367    8.361171    ( 0.0000,  0.0000,  0.0000)
  83 O      1.080337   14.333093   11.019066    ( 0.0000,  0.0000,  0.0000)
  84 O      6.256598   12.442135   10.967754    ( 0.0000,  0.0000,  0.0000)
  85 Ti     4.393341   12.435956   11.925260    ( 0.0000,  0.0000,  0.0000)
  86 Ti     9.582361   14.316147   11.993996    ( 0.0000,  0.0000,  0.0000)
  87 Ti     2.033827   14.343452   12.522020    ( 0.0000,  0.0000,  0.0000)
  88 Ti     7.186730   12.428002   12.512328    ( 0.0000,  0.0000,  0.0000)
  89 O      2.554211   12.428113   12.760778    ( 0.0000,  0.0000,  0.0000)
  90 O      7.712125   14.333567   12.743098    ( 0.0000,  0.0000,  0.0000)
  91 O      0.414610   14.330236   13.410149    ( 0.0000,  0.0000,  0.0000)
  92 O      5.542922   12.409139   13.355778    ( 0.0000,  0.0000,  0.0000)
  93 O      9.179185   12.403929   12.005563    ( 0.0000,  0.0000,  0.0000)
  94 O      4.001416   14.348389   11.952255    ( 0.0000,  0.0000,  0.0000)
  95 V      4.098507    8.598636   14.797120    ( 0.0000,  0.0000,  0.0000)
  96 O      2.954137   10.130923   14.628260    ( 0.0000,  0.0000,  0.0000)
  97 O      3.263652    7.071515   14.697187    ( 0.0000,  0.0000,  0.0000)
  98 O      4.858444    8.768563   16.192880    ( 0.0000,  0.0000,  0.0000)
  99 V      9.184190   10.581607   14.719820    ( 0.0000,  0.0000,  0.0000)
 100 O      9.863446   10.540811   16.158819    ( 0.0000,  0.0000,  0.0000)
 101 O      8.106227    9.010434   14.598526    ( 0.0000,  0.0000,  0.0000)
 102 O      8.292955   12.009520   14.514064    ( 0.0000,  0.0000,  0.0000)
 103 H      8.056993    8.399879   15.352963    ( 0.0000,  0.0000,  0.0000)
 104 H      2.991947   10.815998   15.317078    ( 0.0000,  0.0000,  0.0000)

Unit cell:
           periodic     x           y           z      points  spacing
  1. axis:    yes   10.341746    0.000000    0.000000    54     0.1915
  2. axis:    yes   -0.000000   15.289380    0.000000    80     0.1911
  3. axis:    yes    0.000000    0.000000   23.497201   125     0.1880

  Lengths:  10.341746  15.289380  23.497201
  Angles:   90.000000  90.000000  90.000000

Effective grid spacing dv^(1/3) = 0.1902

                     log10-error:    total        iterations:
           time      wfs    density  energy       fermi  poisson
iter:   1  22:13:10  -1.96   +inf  -856.101919    3             
iter:   2  22:13:25  -2.84  -2.64  -856.017232    3             
iter:   3  22:13:40  -3.45  -2.70  -855.960947    3             
iter:   4  22:13:55  -2.63  -2.80  -855.887296    3             
iter:   5  22:14:10  -3.47  -2.96  -855.880248    3             
iter:   6  22:14:25  -4.37  -3.04  -855.879662    3             
iter:   7  22:14:40  -4.08  -3.08  -855.872765    3             
iter:   8  22:14:55  -3.88  -3.22  -855.870724    2             
iter:   9  22:15:11  -4.60  -3.36  -855.869220    3             
iter:  10  22:15:26  -5.24  -3.46  -855.868420    2             
iter:  11  22:15:41  -4.45  -3.51  -855.868037    3             
iter:  12  22:15:56  -5.20  -3.73  -855.867679    2             
iter:  13  22:16:11  -5.61  -3.85  -855.867642    2             
iter:  14  22:16:26  -6.03  -3.91  -855.867681    2             
iter:  15  22:16:41  -6.24  -4.00  -855.867609    2             
iter:  16  22:16:57  -6.63  -4.07  -855.867671    2             
iter:  17  22:17:12  -6.44  -4.13  -855.867688    2             
iter:  18  22:17:27  -6.70  -4.20  -855.867682    2             
iter:  19  22:17:42  -6.87  -4.30  -855.867662    2             
iter:  20  22:17:57  -6.84  -4.39  -855.867709    2             
iter:  21  22:18:12  -6.90  -4.43  -855.867662    2             
iter:  22  22:18:27  -6.30  -4.51  -855.867620    2             
iter:  23  22:18:42  -7.19  -4.56  -855.867629    2             
iter:  24  22:18:58  -7.22  -4.83  -855.867606    2             
iter:  25  22:19:13  -8.06  -4.99  -855.867630    2             

Converged after 25 iterations.

Dipole moment: (-3.463707, -0.699195, -1.055804) |e|*Ang

Energy contributions relative to reference atoms: (reference = -935653.237240)

Kinetic:       +609.923385
Potential:     -776.509966
External:        +0.000000
XC:            -695.364354
Entropy (-ST):   -0.553365
Local:           +6.359988
--------------------------
Free energy:   -856.144312
Extrapolated:  -855.867630

Fermi level: -1.34399

Showing all kpts
 Kpt  Band  Eigenvalues  Occupancy
  0   411     -3.06411    1.00000
  0   412     -1.26269    0.30724
  0   413     -1.23647    0.25442
  0   414     -1.18206    0.16530

  1   411     -3.06395    1.00000
  1   412     -1.26450    0.31112
  1   413     -1.22498    0.23324
  1   414     -1.19246    0.18015



Forces in eV/Ang:
  0 O    -1.53357   -0.10823    1.23473
  1 O    -1.04663    0.01815    1.25179
  2 Ti    2.55662    0.02047    1.17893
  3 Ti    2.66017    0.30777    0.79203
  4 Ti   -0.03305    0.15631   -1.39387
  5 Ti   -1.80159    0.13891   -1.03432
  6 O     0.31615   -0.10714   -0.01120
  7 O     0.14508    0.26871   -0.23359
  8 O    -1.44902    0.01783    0.28216
  9 O    -0.72090   -0.04574   -0.06367
 10 O     0.19986    0.45436   -1.06750
 11 O     0.43765   -0.18299   -1.03672
 12 O    -0.02891   -0.01838   -0.00488
 13 O    -0.00168    0.02130   -0.00824
 14 Ti   -0.00451    0.07092    0.03176
 15 Ti    0.16378    0.11537   -0.06706
 16 Ti    0.05934    0.28722    0.07058
 17 Ti    0.01477   -0.25764   -0.00168
 18 O     0.00271   -0.06028   -0.00565
 19 O    -0.03854    0.32819    0.32097
 20 O    -0.09641   -0.03090    0.00286
 21 O    -0.01154    0.00972   -0.00870
 22 O    -0.02104    0.04052   -0.00526
 23 O     0.02785   -0.09444   -0.03814
 24 O    -1.59897   -0.06306    2.02291
 25 O    -0.19171   -0.03329   -0.21077
 26 Ti   -0.25715    0.07890    0.78773
 27 Ti    3.73913    0.56348    0.53821
 28 Ti   -0.15048   -0.06341   -2.12104
 29 Ti   -0.49299    0.18717    0.38796
 30 O     0.30293    0.01389    0.00642
 31 O    -0.22181   -0.34887   -0.11394
 32 O    -1.70746   -0.02565    0.37494
 33 O    -0.11817   -0.28362   -0.86975
 34 O     0.51955    0.14880   -1.15800
 35 O     0.44525   -0.01225   -0.80565
 36 O     0.02904   -0.06632   -0.06833
 37 Ti   -0.33628    0.47595    0.13758
 38 Ti    1.89465    0.26735    3.39250
 39 Ti   -2.08552   -0.01307    1.51008
 40 Ti   -0.41021    0.36160   -1.52463
 41 O     0.19066   -0.30392   -0.24011
 42 O    -0.56348   -0.35260    0.82808
 43 O     0.87900   -0.17800   -2.41365
 44 O     0.77445   -0.06171    0.20810
 45 O    -0.45379   -0.54865    0.27446
 46 O     0.36560   -0.03711   -0.20145
 47 O    -1.45754    0.02498    2.22202
 48 O    -1.04321   -0.01097    1.22309
 49 Ti    2.56198   -0.14785    1.04295
 50 Ti    3.57364   -0.18712    0.15455
 51 Ti   -1.21465   -0.02946   -2.45470
 52 Ti   -1.31523    0.05846   -1.16763
 53 O     0.27947    0.11153    0.10998
 54 O     0.01891   -0.11450   -0.10359
 55 O    -0.77739   -0.10724    0.75834
 56 O    -0.87661    0.07259    0.16380
 57 O     0.15200   -0.04156   -0.81978
 58 O     0.18615    0.05377   -0.73770
 59 O     0.09938    0.08866    0.57550
 60 O    -0.09911    0.09875   -0.12000
 61 Ti    0.14609   -0.70296    0.30036
 62 Ti   -1.03347   -0.07867   -2.61473
 63 Ti    1.09137   -0.28042   -1.81779
 64 Ti   -0.02914   -0.31146    0.15347
 65 O    -0.00309    0.94643    0.28077
 66 O     0.34613   -0.40358   -1.61584
 67 O    -0.91419    0.15264    1.12071
 68 O     0.69331    0.10126   -0.66370
 69 O    -0.00270    0.54344   -0.10283
 70 O    -0.41387    0.16057    0.35465
 71 O    -1.10484    0.02924    1.32397
 72 O    -1.22064    0.06544    1.15384
 73 Ti    2.73064   -0.03661    0.98966
 74 Ti    2.87998   -0.98925    0.97272
 75 Ti   -1.06046   -0.08950   -1.16597
 76 Ti   -1.05970   -0.44251   -1.08907
 77 O     0.22477    0.01085    0.11111
 78 O     0.23144    0.11682   -0.17301
 79 O    -0.70746   -0.00785   -0.05338
 80 O    -0.90142   -0.05471   -0.12205
 81 O     0.05710    0.15569   -0.92983
 82 O     0.20958    0.18548   -0.93922
 83 O     0.02468   -0.01919   -0.02231
 84 O    -0.13958   -0.03861   -0.07487
 85 Ti    0.48946    0.17431   -0.11389
 86 Ti   -0.14551   -0.01007    0.10082
 87 Ti   -0.04705    0.25490   -0.04450
 88 Ti    0.57178    0.13875    1.53514
 89 O    -0.17411   -0.39730    0.27999
 90 O     0.00661    0.25085   -0.27053
 91 O     0.08915   -0.03288   -0.00495
 92 O    -0.43030   -0.02540   -0.16895
 93 O     0.35654   -0.15994   -0.54885
 94 O    -0.04211   -0.05892    0.02606
 95 V    -0.92529   -2.30847    0.30047
 96 O    -0.22823    0.17902   -0.11921
 97 O     0.35615    1.71490   -0.34376
 98 O    -0.05841   -0.14644   -0.08001
 99 V    -1.37366    0.80058    0.88134
100 O    -0.01248    0.06297    0.22168
101 O    -0.18423   -0.20383    0.12727
102 O     0.83116   -0.42653    0.78976
103 H     0.11228   -0.12410    0.17525
104 H     0.04489    0.09743    0.19366

System changes: positions 

Initializing position-dependent things.

Density initialized from wave functions
          .------------------------.  
         /|                        |  
        / |                        |  
       /  |                        |  
      /   |                        |  
     /    |                        |  
    /     |                        |  
   /      |                        |  
  /       |                        |  
 *        |                        |  
 |        |                        |  
 |        |                        |  
 |        |                    O   |  
 |        O    H  O         O      |  
 |        |   Oi      O  H  OV     |  
 |      O |   O V  O      Oi     Ti|  
 |        | TO     Oi     O   O    |  
 |   O    |      O     OTi    TiO  |  
 |        TiO     O         O      |  
 |        O   O TiO  OTi O   Ti    |  
 |  O  O  |O   Ti     Ti   OTiO  O |  
 |      Tii OO OO    OO   O        |  
 |      OO|       OTii    Tii      |  
 |   OTi  | Tii     O   OO     O   |  
 |    O   |O     OTi     Oi        |  
 |  Ti    TO   O  O    O     O     |  
 |  O    O|     Ti    Ti           |  
 |       Ti         O      O       |  
 |        |  O                     |  
 |        .------------------------.  
 |       /                        /   
 |      /                        /    
 |     /                        /     
 |    /                        /      
 |   /                        /       
 |  /                        /        
 | /                        /         
 |/                        /          
 *------------------------*           

Positions:
   0 O      9.974517    2.862499    7.395923    ( 0.0000,  0.0000,  0.0000)
   1 O      4.751576    0.970856    7.433844    ( 0.0000,  0.0000,  0.0000)
   2 Ti     2.973752    0.965511    8.331948    ( 0.0000,  0.0000,  0.0000)
   3 Ti     8.189404    2.803522    8.288172    ( 0.0000,  0.0000,  0.0000)
   4 Ti     0.613369    2.836809    8.994488    ( 0.0000,  0.0000,  0.0000)
   5 Ti     5.856682    0.938662    8.958328    ( 0.0000,  0.0000,  0.0000)
   6 O      1.063899    0.953977    8.954538    ( 0.0000,  0.0000,  0.0000)
   7 O      6.332739    2.842687    8.933688    ( 0.0000,  0.0000,  0.0000)
   8 O      9.254147    2.761528    9.821154    ( 0.0000,  0.0000,  0.0000)
   9 O      4.054529    0.983467    9.850791    ( 0.0000,  0.0000,  0.0000)
  10 O      7.750782    0.923741    8.323928    ( 0.0000,  0.0000,  0.0000)
  11 O      2.518424    2.887861    8.350100    ( 0.0000,  0.0000,  0.0000)
  12 O      1.091195    2.889456   11.033411    ( 0.0000,  0.0000,  0.0000)
  13 O      6.267462    0.962101   10.989880    ( 0.0000,  0.0000,  0.0000)
  14 Ti     4.405002    0.960474   11.965688    ( 0.0000,  0.0000,  0.0000)
  15 Ti     9.581976    2.830495   11.971449    ( 0.0000,  0.0000,  0.0000)
  16 Ti     2.018600    2.862369   12.558660    ( 0.0000,  0.0000,  0.0000)
  17 Ti     7.204224    0.933405   12.510367    ( 0.0000,  0.0000,  0.0000)
  18 O      2.551567    0.957917   12.759289    ( 0.0000,  0.0000,  0.0000)
  19 O      7.733960    2.851669   12.808941    ( 0.0000,  0.0000,  0.0000)
  20 O      0.366278    2.851447   13.409673    ( 0.0000,  0.0000,  0.0000)
  21 O      5.573289    0.953178   13.381946    ( 0.0000,  0.0000,  0.0000)
  22 O      9.178934    0.944724   11.982319    ( 0.0000,  0.0000,  0.0000)
  23 O      3.985751    2.894946   12.007088    ( 0.0000,  0.0000,  0.0000)
  24 O      9.990889    6.696232    7.341894    ( 0.0000,  0.0000,  0.0000)
  25 O      4.511960    4.787917    8.184082    ( 0.0000,  0.0000,  0.0000)
  26 Ti     2.724858    4.779771    7.960807    ( 0.0000,  0.0000,  0.0000)
  27 Ti     8.145479    6.707698    8.192011    ( 0.0000,  0.0000,  0.0000)
  28 Ti     0.630398    6.695439    9.077253    ( 0.0000,  0.0000,  0.0000)
  29 Ti     6.062248    4.766294    9.148169    ( 0.0000,  0.0000,  0.0000)
  30 O      1.023957    4.767147    8.931551    ( 0.0000,  0.0000,  0.0000)
  31 O      6.358432    6.708779    8.938070    ( 0.0000,  0.0000,  0.0000)
  32 O      9.235162    6.764411    9.751167    ( 0.0000,  0.0000,  0.0000)
  33 O      7.850578    4.773562    8.386917    ( 0.0000,  0.0000,  0.0000)
  34 O      2.498268    6.663844    8.333080    ( 0.0000,  0.0000,  0.0000)
  35 O      1.005914    6.556149   11.092202    ( 0.0000,  0.0000,  0.0000)
  36 O      5.793519    4.758693   10.933015    ( 0.0000,  0.0000,  0.0000)
  37 Ti     4.464166    4.754914   12.273341    ( 0.0000,  0.0000,  0.0000)
  38 Ti     9.483949    6.665488   11.786799    ( 0.0000,  0.0000,  0.0000)
  39 Ti     2.069851    6.626813   12.652591    ( 0.0000,  0.0000,  0.0000)
  40 Ti     7.483256    4.777314   13.102692    ( 0.0000,  0.0000,  0.0000)
  41 O      2.522584    4.733730   12.950347    ( 0.0000,  0.0000,  0.0000)
  42 O      7.653097    6.659962   12.606442    ( 0.0000,  0.0000,  0.0000)
  43 O      0.131305    6.726553   13.432081    ( 0.0000,  0.0000,  0.0000)
  44 O      5.683128    4.792441   13.601199    ( 0.0000,  0.0000,  0.0000)
  45 O      9.085379    4.744990   11.874214    ( 0.0000,  0.0000,  0.0000)
  46 O      3.874110    6.571739   11.856812    ( 0.0000,  0.0000,  0.0000)
  47 O      9.941219   10.526766    7.424162    ( 0.0000,  0.0000,  0.0000)
  48 O      4.793812    8.598035    7.389240    ( 0.0000,  0.0000,  0.0000)
  49 Ti     2.924043    8.598447    8.231525    ( 0.0000,  0.0000,  0.0000)
  50 Ti     8.168624   10.568713    8.307193    ( 0.0000,  0.0000,  0.0000)
  51 Ti     0.689842   10.519812    9.160804    ( 0.0000,  0.0000,  0.0000)
  52 Ti     5.895270    8.633917    8.910762    ( 0.0000,  0.0000,  0.0000)
  53 O      1.085423    8.597422    8.995679    ( 0.0000,  0.0000,  0.0000)
  54 O      6.252646   10.528029    8.921193    ( 0.0000,  0.0000,  0.0000)
  55 O      9.220059   10.568411    9.844708    ( 0.0000,  0.0000,  0.0000)
  56 O      4.059029    8.507535    9.748930    ( 0.0000,  0.0000,  0.0000)
  57 O      7.758726    8.628199    8.273162    ( 0.0000,  0.0000,  0.0000)
  58 O      2.566398   10.490594    8.371621    ( 0.0000,  0.0000,  0.0000)
  59 O      1.048944   10.536969   11.125582    ( 0.0000,  0.0000,  0.0000)
  60 O      6.203859    8.635723   11.067298    ( 0.0000,  0.0000,  0.0000)
  61 Ti     4.282943    8.665877   11.655737    ( 0.0000,  0.0000,  0.0000)
  62 Ti     9.607555   10.525336   11.893452    ( 0.0000,  0.0000,  0.0000)
  63 Ti     2.090996   10.522888   12.816447    ( 0.0000,  0.0000,  0.0000)
  64 Ti     7.232765    8.656728   12.601830    ( 0.0000,  0.0000,  0.0000)
  65 O      2.501588    8.581067   12.466586    ( 0.0000,  0.0000,  0.0000)
  66 O      7.666787   10.506078   12.744880    ( 0.0000,  0.0000,  0.0000)
  67 O      0.326488   10.461913   13.506237    ( 0.0000,  0.0000,  0.0000)
  68 O      5.295323    8.591017   13.428831    ( 0.0000,  0.0000,  0.0000)
  69 O      9.048041    8.626565   11.858584    ( 0.0000,  0.0000,  0.0000)
  70 O      3.981807   10.514312   11.821419    ( 0.0000,  0.0000,  0.0000)
  71 O      9.924325   14.342583    7.441007    ( 0.0000,  0.0000,  0.0000)
  72 O      4.751345   12.420255    7.419069    ( 0.0000,  0.0000,  0.0000)
  73 Ti     2.956521   12.425773    8.321746    ( 0.0000,  0.0000,  0.0000)
  74 Ti     8.154962   14.365639    8.334509    ( 0.0000,  0.0000,  0.0000)
  75 Ti     0.650324   14.339133    8.977444    ( 0.0000,  0.0000,  0.0000)
  76 Ti     5.825252   12.455807    8.942724    ( 0.0000,  0.0000,  0.0000)
  77 O      1.076745   12.417342    8.959204    ( 0.0000,  0.0000,  0.0000)
  78 O      6.230080   14.350295    8.927239    ( 0.0000,  0.0000,  0.0000)
  79 O      9.212773   14.346204    9.869863    ( 0.0000,  0.0000,  0.0000)
  80 O      4.047363   12.465565    9.835258    ( 0.0000,  0.0000,  0.0000)
  81 O      7.738576   12.452498    8.352645    ( 0.0000,  0.0000,  0.0000)
  82 O      2.551770   14.335367    8.361171    ( 0.0000,  0.0000,  0.0000)
  83 O      1.080512   14.332909   11.018790    ( 0.0000,  0.0000,  0.0000)
  84 O      6.255846   12.441724   10.968394    ( 0.0000,  0.0000,  0.0000)
  85 Ti     4.398326   12.437938   11.923710    ( 0.0000,  0.0000,  0.0000)
  86 Ti     9.581184   14.316209   11.994927    ( 0.0000,  0.0000,  0.0000)
  87 Ti     2.033507   14.345846   12.521577    ( 0.0000,  0.0000,  0.0000)
  88 Ti     7.191840   12.429369   12.527412    ( 0.0000,  0.0000,  0.0000)
  89 O      2.552512   12.424120   12.763578    ( 0.0000,  0.0000,  0.0000)
  90 O      7.712158   14.335861   12.740413    ( 0.0000,  0.0000,  0.0000)
  91 O      0.415360   14.329903   13.410106    ( 0.0000,  0.0000,  0.0000)
  92 O      5.538919   12.408870   13.354336    ( 0.0000,  0.0000,  0.0000)
  93 O      9.182656   12.402414   11.999766    ( 0.0000,  0.0000,  0.0000)
  94 O      4.000968   14.347825   11.952562    ( 0.0000,  0.0000,  0.0000)
  95 V      4.090826    8.578096   14.800780    ( 0.0000,  0.0000,  0.0000)
  96 O      2.952128   10.131467   14.626402    ( 0.0000,  0.0000,  0.0000)
  97 O      3.266203    7.087347   14.693701    ( 0.0000,  0.0000,  0.0000)
  98 O      4.856937    8.766444   16.190872    ( 0.0000,  0.0000,  0.0000)
  99 V      9.172060   10.587659   14.728999    ( 0.0000,  0.0000,  0.0000)
 100 O      9.862958   10.541679   16.161083    ( 0.0000,  0.0000,  0.0000)
 101 O      8.104129    9.008649   14.599375    ( 0.0000,  0.0000,  0.0000)
 102 O      8.300255   12.007180   14.522221    ( 0.0000,  0.0000,  0.0000)
 103 H      8.058131    8.398261   15.355236    ( 0.0000,  0.0000,  0.0000)
 104 H      2.992472   10.817401   15.319513    ( 0.0000,  0.0000,  0.0000)

Unit cell:
           periodic     x           y           z      points  spacing
  1. axis:    yes   10.341746    0.000000    0.000000    54     0.1915
  2. axis:    yes   -0.000000   15.289380    0.000000    80     0.1911
  3. axis:    yes    0.000000    0.000000   23.497201   125     0.1880

  Lengths:  10.341746  15.289380  23.497201
  Angles:   90.000000  90.000000  90.000000

Effective grid spacing dv^(1/3) = 0.1902

                     log10-error:    total        iterations:
           time      wfs    density  energy       fermi  poisson
iter:   1  22:19:38  -2.20   +inf  -856.676920    3             
iter:   2  22:19:53  -3.11  -2.75  -856.616125    3             
iter:   3  22:20:08  -3.74  -2.82  -856.577831    3             
iter:   4  22:20:23  -2.82  -2.94  -856.535379    3             
iter:   5  22:20:38  -3.72  -3.06  -856.527429    3             
iter:   6  22:20:53  -4.58  -3.16  -856.526605    3             
iter:   7  22:21:08  -4.27  -3.19  -856.522442    2             
iter:   8  22:21:24  -4.19  -3.34  -856.521483    2             
iter:   9  22:21:39  -4.88  -3.49  -856.520596    3             
iter:  10  22:21:54  -5.70  -3.55  -856.520407    2             
iter:  11  22:22:09  -4.59  -3.60  -856.519886    3             
iter:  12  22:22:24  -5.41  -3.84  -856.519796    2             
iter:  13  22:22:39  -5.92  -3.96  -856.519729    2             
iter:  14  22:22:54  -6.07  -4.00  -856.519722    2             
iter:  15  22:23:09  -6.25  -4.11  -856.519745    2             
iter:  16  22:23:24  -6.66  -4.20  -856.519685    2             
iter:  17  22:23:39  -6.81  -4.27  -856.519723    2             
iter:  18  22:23:55  -6.87  -4.33  -856.519691    2             
iter:  19  22:24:10  -7.47  -4.50  -856.519720    2             

Converged after 19 iterations.

Dipole moment: (-4.295722, -0.676281, -1.007581) |e|*Ang

Energy contributions relative to reference atoms: (reference = -935653.237240)

Kinetic:       +610.271023
Potential:     -777.193630
External:        +0.000000
XC:            -695.676289
Entropy (-ST):   -0.549568
Local:           +6.353960
--------------------------
Free energy:   -856.794504
Extrapolated:  -856.519720

Fermi level: -1.32323

Showing all kpts
 Kpt  Band  Eigenvalues  Occupancy
  0   411     -3.20895    1.00000
  0   412     -1.24206    0.30752
  0   413     -1.22015    0.26294
  0   414     -1.16056    0.16428

  1   411     -3.20889    1.00000
  1   412     -1.24419    0.31209
  1   413     -1.20849    0.24098
  1   414     -1.17181    0.18032



Forces in eV/Ang:
  0 O    -1.52927   -0.11010    1.23720
  1 O    -1.04650    0.01781    1.25105
  2 Ti    2.55682    0.02301    1.17679
  3 Ti    2.65304    0.31872    0.78621
  4 Ti   -0.03641    0.16166   -1.41430
  5 Ti   -1.80138    0.13862   -1.03846
  6 O     0.31431   -0.10856   -0.00906
  7 O     0.14370    0.26674   -0.23210
  8 O    -1.44239    0.01866    0.29321
  9 O    -0.71969   -0.04641   -0.05935
 10 O     0.20068    0.45163   -1.06656
 11 O     0.43621   -0.18610   -1.03448
 12 O    -0.00666   -0.00136    0.02212
 13 O     0.00347    0.01704    0.00202
 14 Ti   -0.00213    0.05607    0.01821
 15 Ti    0.09221    0.04751   -0.05183
 16 Ti    0.03913    0.14030    0.02916
 17 Ti    0.01069   -0.12684   -0.00676
 18 O    -0.00682   -0.01504   -0.00149
 19 O    -0.02396    0.20884    0.26607
 20 O    -0.04889   -0.00445    0.01938
 21 O    -0.00487    0.00175   -0.00210
 22 O    -0.02129    0.04124   -0.00052
 23 O     0.01559   -0.02131   -0.01910
 24 O    -1.57532   -0.05955    2.00833
 25 O    -0.18598   -0.03503   -0.20784
 26 Ti   -0.25992    0.08670    0.78798
 27 Ti    3.81173    0.55081    0.62831
 28 Ti   -0.31777   -0.07238   -2.20070
 29 Ti   -0.47693    0.19725    0.34555
 30 O     0.30705    0.00083    0.01270
 31 O    -0.24157   -0.34822   -0.11114
 32 O    -1.64937   -0.04184    0.52817
 33 O    -0.13333   -0.30483   -0.87119
 34 O     0.53309    0.15127   -1.16348
 35 O     0.49443   -0.01460   -0.48872
 36 O     0.01332   -0.06291    0.02827
 37 Ti   -0.17595    0.43532    0.14041
 38 Ti    1.49444    0.24874    2.60006
 39 Ti   -1.58963    0.01945    1.05649
 40 Ti   -0.45955    0.20077   -1.42021
 41 O     0.08904   -0.08873   -0.16015
 42 O    -0.36699   -0.21081    0.73628
 43 O     0.93368   -0.15248   -1.93566
 44 O     0.53482   -0.03991    0.13263
 45 O    -0.30670   -0.30202    0.22413
 46 O     0.13097    0.00114   -0.05103
 47 O    -1.45350    0.02676    2.24699
 48 O    -1.04396   -0.00794    1.21980
 49 Ti    2.58049   -0.16926    1.04180
 50 Ti    3.47508   -0.19678    0.07439
 51 Ti   -1.10394   -0.03478   -2.50589
 52 Ti   -1.32012    0.04204   -1.17166
 53 O     0.27007    0.15937    0.12740
 54 O     0.04261   -0.11177   -0.11174
 55 O    -0.75363   -0.10738    0.77696
 56 O    -0.87834    0.07920    0.19505
 57 O     0.15393    0.01082   -0.82017
 58 O     0.16007    0.06178   -0.72533
 59 O     0.08128    0.06679    0.36422
 60 O    -0.07041    0.07541   -0.10288
 61 Ti    0.19487   -0.66507    0.25252
 62 Ti   -0.76648   -0.03899   -1.93319
 63 Ti    0.66876   -0.15673   -1.38078
 64 Ti   -0.11903   -0.28549    0.12613
 65 O    -0.05624    0.58102    0.28501
 66 O     0.29283   -0.27378   -1.42645
 67 O    -0.84855    0.15646    0.63122
 68 O     0.49344    0.03991   -0.46477
 69 O     0.04465    0.26655   -0.09946
 70 O    -0.38694    0.08570    0.30505
 71 O    -1.10237    0.02634    1.32246
 72 O    -1.22472    0.06383    1.14884
 73 Ti    2.75167   -0.02807    0.98966
 74 Ti    2.87433   -0.97402    0.97353
 75 Ti   -1.06175   -0.07243   -1.16294
 76 Ti   -1.05802   -0.43551   -1.04809
 77 O     0.20805   -0.02160    0.12214
 78 O     0.23317    0.11708   -0.17711
 79 O    -0.70469   -0.00729   -0.04861
 80 O    -0.91215   -0.05751   -0.14618
 81 O     0.07323    0.12475   -0.93040
 82 O     0.20686    0.18098   -0.93914
 83 O     0.01174   -0.00924   -0.02341
 84 O    -0.01290   -0.03142    0.15339
 85 Ti    0.39924    0.15812   -0.16751
 86 Ti   -0.06732   -0.00578    0.06345
 87 Ti   -0.01890    0.14820   -0.03502
 88 Ti    0.40069    0.09063    1.23342
 89 O    -0.12151   -0.28146    0.20276
 90 O     0.00012    0.16321   -0.20741
 91 O     0.04810   -0.01961   -0.00785
 92 O    -0.28799   -0.02205   -0.05618
 93 O     0.25809   -0.08928   -0.50099
 94 O    -0.03917   -0.03983    0.02965
 95 V    -0.46645   -1.12038    0.01737
 96 O    -0.11825    0.10056   -0.00729
 97 O    -0.05048    0.86242   -0.28043
 98 O    -0.07648   -0.24517    0.00349
 99 V    -0.81229    0.31584    0.60722
100 O    -0.03131    0.07816    0.32252
101 O    -0.21436   -0.22913    0.14287
102 O     0.45397    0.01313    0.65194
103 H     0.09333   -0.09179    0.13434
104 H     0.03718   -0.03796    0.04322

System changes: positions 

Initializing position-dependent things.

Density initialized from wave functions
          .------------------------.  
         /|                        |  
        / |                        |  
       /  |                        |  
      /   |                        |  
     /    |                        |  
    /     |                        |  
   /      |                        |  
  /       |                        |  
 *        |                        |  
 |        |                        |  
 |        |                        |  
 |        |                    O   |  
 |        O    H  O         O      |  
 |        |   Oi      O  H  OV     |  
 |      O |   O V  O      Oi     Ti|  
 |        | TO     Oi     O    O   |  
 |   O    |      O     OTi    TiO  |  
 |        TiO     O         O      |  
 |        O   O TiO  OTi O  Tii    |  
 |  O  O  |O   Ti     Ti   O  O  O |  
 |      Tii OO OO    OO   O        |  
 |      OO|       OTii    Tii      |  
 |   OTi  | Tii     O   OO     O   |  
 |    O   |O     OTi     Oi        |  
 |  Ti    TO   O  O    O     O     |  
 |  O    O|     Ti    Ti           |  
 |       Ti         O      O       |  
 |        |  O                     |  
 |        .------------------------.  
 |       /                        /   
 |      /                        /    
 |     /                        /     
 |    /                        /      
 |   /                        /       
 |  /                        /        
 | /                        /         
 |/                        /          
 *------------------------*           

Positions:
   0 O      9.974517    2.862499    7.395923    ( 0.0000,  0.0000,  0.0000)
   1 O      4.751576    0.970856    7.433844    ( 0.0000,  0.0000,  0.0000)
   2 Ti     2.973752    0.965511    8.331948    ( 0.0000,  0.0000,  0.0000)
   3 Ti     8.189404    2.803522    8.288172    ( 0.0000,  0.0000,  0.0000)
   4 Ti     0.613369    2.836809    8.994488    ( 0.0000,  0.0000,  0.0000)
   5 Ti     5.856682    0.938662    8.958328    ( 0.0000,  0.0000,  0.0000)
   6 O      1.063899    0.953977    8.954538    ( 0.0000,  0.0000,  0.0000)
   7 O      6.332739    2.842687    8.933688    ( 0.0000,  0.0000,  0.0000)
   8 O      9.254147    2.761528    9.821154    ( 0.0000,  0.0000,  0.0000)
   9 O      4.054529    0.983467    9.850791    ( 0.0000,  0.0000,  0.0000)
  10 O      7.750782    0.923741    8.323928    ( 0.0000,  0.0000,  0.0000)
  11 O      2.518424    2.887861    8.350100    ( 0.0000,  0.0000,  0.0000)
  12 O      1.091228    2.889500   11.033896    ( 0.0000,  0.0000,  0.0000)
  13 O      6.267544    0.962323   10.989972    ( 0.0000,  0.0000,  0.0000)
  14 Ti     4.404965    0.961152   11.965872    ( 0.0000,  0.0000,  0.0000)
  15 Ti     9.582973    2.830919   11.970713    ( 0.0000,  0.0000,  0.0000)
  16 Ti     2.019023    2.863748   12.558865    ( 0.0000,  0.0000,  0.0000)
  17 Ti     7.204360    0.932130   12.510221    ( 0.0000,  0.0000,  0.0000)
  18 O      2.551430    0.957910   12.759292    ( 0.0000,  0.0000,  0.0000)
  19 O      7.733668    2.854228   12.812546    ( 0.0000,  0.0000,  0.0000)
  20 O      0.365800    2.851466   13.410041    ( 0.0000,  0.0000,  0.0000)
  21 O      5.573257    0.953177   13.381963    ( 0.0000,  0.0000,  0.0000)
  22 O      9.178622    0.945288   11.982333    ( 0.0000,  0.0000,  0.0000)
  23 O      3.985913    2.894923   12.006879    ( 0.0000,  0.0000,  0.0000)
  24 O      9.990889    6.696232    7.341894    ( 0.0000,  0.0000,  0.0000)
  25 O      4.511960    4.787917    8.184082    ( 0.0000,  0.0000,  0.0000)
  26 Ti     2.724858    4.779771    7.960807    ( 0.0000,  0.0000,  0.0000)
  27 Ti     8.145479    6.707698    8.192011    ( 0.0000,  0.0000,  0.0000)
  28 Ti     0.630398    6.695439    9.077253    ( 0.0000,  0.0000,  0.0000)
  29 Ti     6.062248    4.766294    9.148169    ( 0.0000,  0.0000,  0.0000)
  30 O      1.023957    4.767147    8.931551    ( 0.0000,  0.0000,  0.0000)
  31 O      6.358432    6.708779    8.938070    ( 0.0000,  0.0000,  0.0000)
  32 O      9.235162    6.764411    9.751167    ( 0.0000,  0.0000,  0.0000)
  33 O      7.850578    4.773562    8.386917    ( 0.0000,  0.0000,  0.0000)
  34 O      2.498268    6.663844    8.333080    ( 0.0000,  0.0000,  0.0000)
  35 O      1.013215    6.555934   11.086448    ( 0.0000,  0.0000,  0.0000)
  36 O      5.793580    4.757807   10.933795    ( 0.0000,  0.0000,  0.0000)
  37 Ti     4.462465    4.760943   12.275374    ( 0.0000,  0.0000,  0.0000)
  38 Ti     9.503977    6.668948   11.821250    ( 0.0000,  0.0000,  0.0000)
  39 Ti     2.048718    6.627254   12.665950    ( 0.0000,  0.0000,  0.0000)
  40 Ti     7.476536    4.779603   13.082927    ( 0.0000,  0.0000,  0.0000)
  41 O      2.523522    4.733256   12.948358    ( 0.0000,  0.0000,  0.0000)
  42 O      7.648528    6.657423   12.616571    ( 0.0000,  0.0000,  0.0000)
  43 O      0.144778    6.724449   13.405932    ( 0.0000,  0.0000,  0.0000)
  44 O      5.689860    4.791941   13.602721    ( 0.0000,  0.0000,  0.0000)
  45 O      9.081487    4.741547   11.877219    ( 0.0000,  0.0000,  0.0000)
  46 O      3.875041    6.571853   11.856651    ( 0.0000,  0.0000,  0.0000)
  47 O      9.941219   10.526766    7.424162    ( 0.0000,  0.0000,  0.0000)
  48 O      4.793812    8.598035    7.389240    ( 0.0000,  0.0000,  0.0000)
  49 Ti     2.924043    8.598447    8.231525    ( 0.0000,  0.0000,  0.0000)
  50 Ti     8.168624   10.568713    8.307193    ( 0.0000,  0.0000,  0.0000)
  51 Ti     0.689842   10.519812    9.160804    ( 0.0000,  0.0000,  0.0000)
  52 Ti     5.895270    8.633917    8.910762    ( 0.0000,  0.0000,  0.0000)
  53 O      1.085423    8.597422    8.995679    ( 0.0000,  0.0000,  0.0000)
  54 O      6.252646   10.528029    8.921193    ( 0.0000,  0.0000,  0.0000)
  55 O      9.220059   10.568411    9.844708    ( 0.0000,  0.0000,  0.0000)
  56 O      4.059029    8.507535    9.748930    ( 0.0000,  0.0000,  0.0000)
  57 O      7.758726    8.628199    8.273162    ( 0.0000,  0.0000,  0.0000)
  58 O      2.566398   10.490594    8.371621    ( 0.0000,  0.0000,  0.0000)
  59 O      1.050028   10.537844   11.130046    ( 0.0000,  0.0000,  0.0000)
  60 O      6.202964    8.636727   11.065913    ( 0.0000,  0.0000,  0.0000)
  61 Ti     4.286007    8.656571   11.659123    ( 0.0000,  0.0000,  0.0000)
  62 Ti     9.597905   10.524840   11.868574    ( 0.0000,  0.0000,  0.0000)
  63 Ti     2.098733   10.521120   12.798480    ( 0.0000,  0.0000,  0.0000)
  64 Ti     7.230689    8.652695   12.603557    ( 0.0000,  0.0000,  0.0000)
  65 O      2.500598    8.588024   12.470673    ( 0.0000,  0.0000,  0.0000)
  66 O      7.670768   10.502722   12.725273    ( 0.0000,  0.0000,  0.0000)
  67 O      0.314691   10.464203   13.513211    ( 0.0000,  0.0000,  0.0000)
  68 O      5.301519    8.591365   13.422953    ( 0.0000,  0.0000,  0.0000)
  69 O      9.048822    8.629442   11.857140    ( 0.0000,  0.0000,  0.0000)
  70 O      3.976364   10.515282   11.825601    ( 0.0000,  0.0000,  0.0000)
  71 O      9.924325   14.342583    7.441007    ( 0.0000,  0.0000,  0.0000)
  72 O      4.751345   12.420255    7.419069    ( 0.0000,  0.0000,  0.0000)
  73 Ti     2.956521   12.425773    8.321746    ( 0.0000,  0.0000,  0.0000)
  74 Ti     8.154962   14.365639    8.334509    ( 0.0000,  0.0000,  0.0000)
  75 Ti     0.650324   14.339133    8.977444    ( 0.0000,  0.0000,  0.0000)
  76 Ti     5.825252   12.455807    8.942724    ( 0.0000,  0.0000,  0.0000)
  77 O      1.076745   12.417342    8.959204    ( 0.0000,  0.0000,  0.0000)
  78 O      6.230080   14.350295    8.927239    ( 0.0000,  0.0000,  0.0000)
  79 O      9.212773   14.346204    9.869863    ( 0.0000,  0.0000,  0.0000)
  80 O      4.047363   12.465565    9.835258    ( 0.0000,  0.0000,  0.0000)
  81 O      7.738576   12.452498    8.352645    ( 0.0000,  0.0000,  0.0000)
  82 O      2.551770   14.335367    8.361171    ( 0.0000,  0.0000,  0.0000)
  83 O      1.080610   14.332807   11.018439    ( 0.0000,  0.0000,  0.0000)
  84 O      6.256265   12.441295   10.971692    ( 0.0000,  0.0000,  0.0000)
  85 Ti     4.403666   12.440198   11.921086    ( 0.0000,  0.0000,  0.0000)
  86 Ti     9.580567   14.316221   11.995681    ( 0.0000,  0.0000,  0.0000)
  87 Ti     2.033383   14.347577   12.521116    ( 0.0000,  0.0000,  0.0000)
  88 Ti     7.196674   12.430502   12.543581    ( 0.0000,  0.0000,  0.0000)
  89 O      2.550975   12.420488   12.766200    ( 0.0000,  0.0000,  0.0000)
  90 O      7.712129   14.337809   12.737708    ( 0.0000,  0.0000,  0.0000)
  91 O      0.415862   14.329660   13.409995    ( 0.0000,  0.0000,  0.0000)
  92 O      5.535417   12.408566   13.353930    ( 0.0000,  0.0000,  0.0000)
  93 O      9.185944   12.401381   11.992827    ( 0.0000,  0.0000,  0.0000)
  94 O      4.000422   14.347331   11.953001    ( 0.0000,  0.0000,  0.0000)
  95 V      4.086190    8.566519   14.800749    ( 0.0000,  0.0000,  0.0000)
  96 O      2.950876   10.132049   14.626202    ( 0.0000,  0.0000,  0.0000)
  97 O      3.264131    7.096715   14.689959    ( 0.0000,  0.0000,  0.0000)
  98 O      4.855379    8.762534   16.190485    ( 0.0000,  0.0000,  0.0000)
  99 V      9.162908   10.589977   14.736945    ( 0.0000,  0.0000,  0.0000)
 100 O      9.862304   10.542906   16.165752    ( 0.0000,  0.0000,  0.0000)
 101 O      8.100989    9.005575   14.601157    ( 0.0000,  0.0000,  0.0000)
 102 O      8.305177   12.009273   14.531017    ( 0.0000,  0.0000,  0.0000)
 103 H      8.059381    8.396877   15.357259    ( 0.0000,  0.0000,  0.0000)
 104 H      2.993005   10.816809   15.320040    ( 0.0000,  0.0000,  0.0000)

Unit cell:
           periodic     x           y           z      points  spacing
  1. axis:    yes   10.341746    0.000000    0.000000    54     0.1915
  2. axis:    yes   -0.000000   15.289380    0.000000    80     0.1911
  3. axis:    yes    0.000000    0.000000   23.497201   125     0.1880

  Lengths:  10.341746  15.289380  23.497201
  Angles:   90.000000  90.000000  90.000000

Effective grid spacing dv^(1/3) = 0.1902

                     log10-error:    total        iterations:
           time      wfs    density  energy       fermi  poisson
iter:   1  22:24:35  -2.29   +inf  -857.118862    3             
iter:   2  22:24:50  -3.24  -2.81  -857.064906    3             
iter:   3  22:25:05  -3.89  -2.88  -857.035612    3             
iter:   4  22:25:20  -2.91  -3.00  -856.997728    3             
iter:   5  22:25:35  -4.01  -3.14  -856.992880    3             
iter:   6  22:25:50  -4.69  -3.22  -856.992953    3             
iter:   7  22:26:05  -4.42  -3.26  -856.991302    3             
iter:   8  22:26:21  -4.49  -3.38  -856.989677    3             
iter:   9  22:26:36  -4.47  -3.52  -856.988464    2             
iter:  10  22:26:51  -5.41  -3.62  -856.988618    2             
iter:  11  22:27:06  -4.69  -3.69  -856.988382    3             
iter:  12  22:27:21  -4.83  -3.88  -856.988095    2             
iter:  13  22:27:36  -5.88  -3.98  -856.987933    2             
iter:  14  22:27:51  -5.96  -4.05  -856.987924    2             
iter:  15  22:28:06  -6.00  -4.13  -856.987921    2             
iter:  16  22:28:22  -6.87  -4.31  -856.987950    1             
iter:  17  22:28:37  -6.66  -4.36  -856.987899    2             
iter:  18  22:28:52  -6.71  -4.50  -856.987918    2             
iter:  19  22:29:07  -7.44  -4.69  -856.987916    2             

Converged after 19 iterations.

Dipole moment: (-5.228959, -0.651410, -0.978542) |e|*Ang

Energy contributions relative to reference atoms: (reference = -935653.237240)

Kinetic:       +610.944247
Potential:     -778.036725
External:        +0.000000
XC:            -695.980009
Entropy (-ST):   -0.547342
Local:           +6.358242
--------------------------
Free energy:   -857.261587
Extrapolated:  -856.987916

Fermi level: -1.30871

Showing all kpts
 Kpt  Band  Eigenvalues  Occupancy
  0   411     -3.25021    1.00000
  0   412     -1.22719    0.30677
  0   413     -1.20889    0.26930
  0   414     -1.14418    0.16175

  1   411     -3.25024    1.00000
  1   412     -1.22946    0.31163
  1   413     -1.19780    0.24803
  1   414     -1.15596    0.17835



Forces in eV/Ang:
  0 O    -1.52659   -0.11147    1.23969
  1 O    -1.04528    0.01761    1.25077
  2 Ti    2.55650    0.02576    1.17590
  3 Ti    2.64974    0.32685    0.78036
  4 Ti   -0.03666    0.16680   -1.42934
  5 Ti   -1.80236    0.13674   -1.04039
  6 O     0.31270   -0.10964   -0.00731
  7 O     0.14072    0.26992   -0.22849
  8 O    -1.43891    0.02077    0.30499
  9 O    -0.71784   -0.04752   -0.05644
 10 O     0.20078    0.45020   -1.06548
 11 O     0.43524   -0.18959   -1.03321
 12 O    -0.00021    0.00484    0.02774
 13 O     0.00471    0.01559    0.00427
 14 Ti   -0.00092    0.05703    0.01107
 15 Ti    0.04661   -0.00002   -0.02908
 16 Ti    0.04028    0.05126    0.00468
 17 Ti    0.00671   -0.04189   -0.00634
 18 O    -0.01157    0.00603   -0.00163
 19 O    -0.01331    0.10992    0.21275
 20 O    -0.02342    0.00812    0.02139
 21 O    -0.00158   -0.00271   -0.00099
 22 O    -0.01990    0.04353    0.00015
 23 O     0.00594    0.03189   -0.00266
 24 O    -1.55747   -0.05764    1.99556
 25 O    -0.17094   -0.03705   -0.20174
 26 Ti   -0.26909    0.09550    0.78882
 27 Ti    3.89729    0.54285    0.71758
 28 Ti   -0.47478   -0.08033   -2.25872
 29 Ti   -0.46110    0.20678    0.30876
 30 O     0.31159   -0.01209    0.01600
 31 O    -0.26207   -0.35286   -0.10462
 32 O    -1.59632   -0.05477    0.58303
 33 O    -0.15232   -0.32484   -0.86989
 34 O     0.54755    0.15207   -1.16941
 35 O     0.48068   -0.01229   -0.25972
 36 O     0.03434   -0.05317    0.10459
 37 Ti   -0.10272    0.38842    0.13710
 38 Ti    1.03437    0.22706    1.73131
 39 Ti   -1.05779    0.03159    0.70818
 40 Ti   -0.49816    0.06618   -1.33305
 41 O     0.01150    0.02921   -0.10750
 42 O    -0.21521   -0.08721    0.66040
 43 O     0.97910   -0.11363   -1.30002
 44 O     0.33589   -0.02346    0.08638
 45 O    -0.18300   -0.12516    0.18420
 46 O     0.04935    0.04532    0.01727
 47 O    -1.45060    0.02853    2.26828
 48 O    -1.04263   -0.00481    1.21708
 49 Ti    2.59785   -0.19084    1.04360
 50 Ti    3.37957   -0.20660   -0.00680
 51 Ti   -0.99597   -0.04053   -2.56429
 52 Ti   -1.32965    0.02785   -1.18045
 53 O     0.26251    0.20207    0.13979
 54 O     0.06140   -0.10588   -0.11667
 55 O    -0.73817   -0.10871    0.79157
 56 O    -0.87593    0.08320    0.22357
 57 O     0.15498    0.05653   -0.81988
 58 O     0.13786    0.07191   -0.71564
 59 O     0.07134    0.05360    0.18462
 60 O    -0.05283    0.04924   -0.08536
 61 Ti    0.18657   -0.62309    0.18422
 62 Ti   -0.61070    0.00402   -1.37872
 63 Ti    0.38956   -0.05233   -1.02256
 64 Ti   -0.15072   -0.23922    0.08953
 65 O    -0.08217    0.33827    0.27995
 66 O     0.25214   -0.18550   -1.25834
 67 O    -0.77436    0.15147    0.30757
 68 O     0.38511   -0.00394   -0.34658
 69 O     0.08451    0.05146   -0.08079
 70 O    -0.37457    0.02063    0.27125
 71 O    -1.10057    0.02420    1.32076
 72 O    -1.22383    0.06256    1.14731
 73 Ti    2.76474   -0.02046    0.98711
 74 Ti    2.87292   -0.96007    0.97708
 75 Ti   -1.06498   -0.05723   -1.15885
 76 Ti   -1.05475   -0.42883   -0.99824
 77 O     0.19465   -0.04826    0.13141
 78 O     0.23277    0.11422   -0.17880
 79 O    -0.70266   -0.00376   -0.05172
 80 O    -0.91073   -0.05876   -0.16429
 81 O     0.08498    0.09844   -0.92987
 82 O     0.20583    0.17569   -0.93861
 83 O     0.00682   -0.00154   -0.02363
 84 O     0.04519   -0.02293    0.27569
 85 Ti    0.33321    0.12657   -0.18522
 86 Ti   -0.01639   -0.01476    0.03087
 87 Ti   -0.00142    0.06062   -0.02194
 88 Ti    0.28363    0.05105    1.01124
 89 O    -0.08529   -0.18410    0.14162
 90 O     0.00001    0.10904   -0.16031
 91 O     0.02419   -0.01173   -0.01116
 92 O    -0.19475   -0.02174    0.03267
 93 O     0.18548   -0.02383   -0.46275
 94 O    -0.03492   -0.02523    0.03034
 95 V    -0.17653   -0.39119   -0.02050
 96 O    -0.06666   -0.03782   -0.05465
 97 O    -0.27895    0.39052   -0.24775
 98 O    -0.13181   -0.30515   -0.03947
 99 V    -0.40454    0.08535    0.46445
100 O    -0.07954    0.07913    0.30010
101 O    -0.22554   -0.17130    0.07158
102 O     0.22858    0.20240    0.51551
103 H     0.06673   -0.12186    0.16846
104 H     0.03443   -0.03434    0.03515

System changes: positions 

Initializing position-dependent things.

Density initialized from wave functions
          .------------------------.  
         /|                        |  
        / |                        |  
       /  |                        |  
      /   |                        |  
     /    |                        |  
    /     |                        |  
   /      |                        |  
  /       |                        |  
 *        |                        |  
 |        |                        |  
 |        |                        |  
 |        |                    O   |  
 |        O    H  O         O      |  
 |        |   Oi      O  H  OV     |  
 |      O |   O V  O      Oi     Ti|  
 |        | TO     Oi     O    O   |  
 |        |      O     OTi    TiO  |  
 |   O    TiO     O    O    O      |  
 |        O   O TiO  OTi O  Tii    |  
 |  O  O  |O   Ti     Ti   O  O  O |  
 |      Tii OO OO    OO   O        |  
 |      OO|       OTii    Tii      |  
 |   OTi  | Tii     O   OO     O   |  
 |    O   |O     OTi     Oi        |  
 |  Ti    TO   O  O    O     O     |  
 |  O    O|     Ti    Ti           |  
 |       Ti         O      O       |  
 |        |  O                     |  
 |        .------------------------.  
 |       /                        /   
 |      /                        /    
 |     /                        /     
 |    /                        /      
 |   /                        /       
 |  /                        /        
 | /                        /         
 |/                        /          
 *------------------------*           

Positions:
   0 O      9.974517    2.862499    7.395923    ( 0.0000,  0.0000,  0.0000)
   1 O      4.751576    0.970856    7.433844    ( 0.0000,  0.0000,  0.0000)
   2 Ti     2.973752    0.965511    8.331948    ( 0.0000,  0.0000,  0.0000)
   3 Ti     8.189404    2.803522    8.288172    ( 0.0000,  0.0000,  0.0000)
   4 Ti     0.613369    2.836809    8.994488    ( 0.0000,  0.0000,  0.0000)
   5 Ti     5.856682    0.938662    8.958328    ( 0.0000,  0.0000,  0.0000)
   6 O      1.063899    0.953977    8.954538    ( 0.0000,  0.0000,  0.0000)
   7 O      6.332739    2.842687    8.933688    ( 0.0000,  0.0000,  0.0000)
   8 O      9.254147    2.761528    9.821154    ( 0.0000,  0.0000,  0.0000)
   9 O      4.054529    0.983467    9.850791    ( 0.0000,  0.0000,  0.0000)
  10 O      7.750782    0.923741    8.323928    ( 0.0000,  0.0000,  0.0000)
  11 O      2.518424    2.887861    8.350100    ( 0.0000,  0.0000,  0.0000)
  12 O      1.091267    2.889614   11.034505    ( 0.0000,  0.0000,  0.0000)
  13 O      6.267649    0.962625   10.990078    ( 0.0000,  0.0000,  0.0000)
  14 Ti     4.404943    0.962231   11.966069    ( 0.0000,  0.0000,  0.0000)
  15 Ti     9.583818    2.830869   11.970116    ( 0.0000,  0.0000,  0.0000)
  16 Ti     2.019765    2.864611   12.558901    ( 0.0000,  0.0000,  0.0000)
  17 Ti     7.204490    0.931423   12.510076    ( 0.0000,  0.0000,  0.0000)
  18 O      2.551190    0.958088   12.759270    ( 0.0000,  0.0000,  0.0000)
  19 O      7.733414    2.856340   12.816733    ( 0.0000,  0.0000,  0.0000)
  20 O      0.365396    2.851646   13.410498    ( 0.0000,  0.0000,  0.0000)
  21 O      5.573237    0.953118   13.381961    ( 0.0000,  0.0000,  0.0000)
  22 O      9.178224    0.946137   11.982344    ( 0.0000,  0.0000,  0.0000)
  23 O      3.986016    2.895608   12.006835    ( 0.0000,  0.0000,  0.0000)
  24 O      9.990889    6.696232    7.341894    ( 0.0000,  0.0000,  0.0000)
  25 O      4.511960    4.787917    8.184082    ( 0.0000,  0.0000,  0.0000)
  26 Ti     2.724858    4.779771    7.960807    ( 0.0000,  0.0000,  0.0000)
  27 Ti     8.145479    6.707698    8.192011    ( 0.0000,  0.0000,  0.0000)
  28 Ti     0.630398    6.695439    9.077253    ( 0.0000,  0.0000,  0.0000)
  29 Ti     6.062248    4.766294    9.148169    ( 0.0000,  0.0000,  0.0000)
  30 O      1.023957    4.767147    8.931551    ( 0.0000,  0.0000,  0.0000)
  31 O      6.358432    6.708779    8.938070    ( 0.0000,  0.0000,  0.0000)
  32 O      9.235162    6.764411    9.751167    ( 0.0000,  0.0000,  0.0000)
  33 O      7.850578    4.773562    8.386917    ( 0.0000,  0.0000,  0.0000)
  34 O      2.498268    6.663844    8.333080    ( 0.0000,  0.0000,  0.0000)
  35 O      1.022831    6.555685   11.081552    ( 0.0000,  0.0000,  0.0000)
  36 O      5.794187    4.756751   10.935931    ( 0.0000,  0.0000,  0.0000)
  37 Ti     4.460674    4.768601   12.278099    ( 0.0000,  0.0000,  0.0000)
  38 Ti     9.524401    6.673426   11.855351    ( 0.0000,  0.0000,  0.0000)
  39 Ti     2.027856    6.627929   12.679643    ( 0.0000,  0.0000,  0.0000)
  40 Ti     7.466662    4.780826   13.056673    ( 0.0000,  0.0000,  0.0000)
  41 O      2.523699    4.734021   12.946293    ( 0.0000,  0.0000,  0.0000)
  42 O      7.644377    6.655754   12.629562    ( 0.0000,  0.0000,  0.0000)
  43 O      0.164149    6.722190   13.380141    ( 0.0000,  0.0000,  0.0000)
  44 O      5.696356    4.791486   13.604332    ( 0.0000,  0.0000,  0.0000)
  45 O      9.077930    4.739228   11.880827    ( 0.0000,  0.0000,  0.0000)
  46 O      3.875734    6.572741   11.857144    ( 0.0000,  0.0000,  0.0000)
  47 O      9.941219   10.526766    7.424162    ( 0.0000,  0.0000,  0.0000)
  48 O      4.793812    8.598035    7.389240    ( 0.0000,  0.0000,  0.0000)
  49 Ti     2.924043    8.598447    8.231525    ( 0.0000,  0.0000,  0.0000)
  50 Ti     8.168624   10.568713    8.307193    ( 0.0000,  0.0000,  0.0000)
  51 Ti     0.689842   10.519812    9.160804    ( 0.0000,  0.0000,  0.0000)
  52 Ti     5.895270    8.633917    8.910762    ( 0.0000,  0.0000,  0.0000)
  53 O      1.085423    8.597422    8.995679    ( 0.0000,  0.0000,  0.0000)
  54 O      6.252646   10.528029    8.921193    ( 0.0000,  0.0000,  0.0000)
  55 O      9.220059   10.568411    9.844708    ( 0.0000,  0.0000,  0.0000)
[...]
  /       |                        |  
 *        |                        |  
 |        |                        |  
 |        |                        |  
 |        |                    O   |  
 |        O   H  O          O      |  
 |        |   Oi      O  H  OV     |  
 |     O  |   O V  O      Oi     Ti|  
 |        | OTi    Oi     O   O    |  
 |    O   |      O     OTi    TiO  |  
 |        TiO     O    O    O      |  
 |        O     TiO  O   O  Tii    |  
 |  O  O  |O  Tii    Tii   O  O  O |  
 |      Tii  O OO    OO   O        |  
 |      OO| O     OTii    Tii      |  
 |   OTi  | Tii     O   OO     O   |  
 |    O   |O     OTi     Oi        |  
 |  Ti    TO   O  O    O     O     |  
 |  O    O|     Ti    Ti           |  
 |       Ti         O      O       |  
 |        |  O                     |  
 |        .------------------------.  
 |       /                        /   
 |      /                        /    
 |     /                        /     
 |    /                        /      
 |   /                        /       
 |  /                        /        
 | /                        /         
 |/                        /          
 *------------------------*           

Positions:
   0 O      9.974517    2.862499    7.395923    ( 0.0000,  0.0000,  0.0000)
   1 O      4.751576    0.970856    7.433844    ( 0.0000,  0.0000,  0.0000)
   2 Ti     2.973752    0.965511    8.331948    ( 0.0000,  0.0000,  0.0000)
   3 Ti     8.189404    2.803522    8.288172    ( 0.0000,  0.0000,  0.0000)
   4 Ti     0.613369    2.836809    8.994488    ( 0.0000,  0.0000,  0.0000)
   5 Ti     5.856682    0.938662    8.958328    ( 0.0000,  0.0000,  0.0000)
   6 O      1.063899    0.953977    8.954538    ( 0.0000,  0.0000,  0.0000)
   7 O      6.332739    2.842687    8.933688    ( 0.0000,  0.0000,  0.0000)
   8 O      9.254147    2.761528    9.821154    ( 0.0000,  0.0000,  0.0000)
   9 O      4.054529    0.983467    9.850791    ( 0.0000,  0.0000,  0.0000)
  10 O      7.750782    0.923741    8.323928    ( 0.0000,  0.0000,  0.0000)
  11 O      2.518424    2.887861    8.350100    ( 0.0000,  0.0000,  0.0000)
  12 O      1.082896    2.890733   11.036937    ( 0.0000,  0.0000,  0.0000)
  13 O      6.269690    0.961120   10.980466    ( 0.0000,  0.0000,  0.0000)
  14 Ti     4.400800    0.953404   11.946780    ( 0.0000,  0.0000,  0.0000)
  15 Ti     9.584485    2.854591   11.982130    ( 0.0000,  0.0000,  0.0000)
  16 Ti     2.015550    2.846225   12.552474    ( 0.0000,  0.0000,  0.0000)
  17 Ti     7.198548    0.973510   12.504901    ( 0.0000,  0.0000,  0.0000)
  18 O      2.564064    0.976852   12.756289    ( 0.0000,  0.0000,  0.0000)
  19 O      7.714534    2.893084   12.743366    ( 0.0000,  0.0000,  0.0000)
  20 O      0.370466    2.869654   13.414682    ( 0.0000,  0.0000,  0.0000)
  21 O      5.562386    1.007818   13.368691    ( 0.0000,  0.0000,  0.0000)
  22 O      9.173320    0.976278   11.976508    ( 0.0000,  0.0000,  0.0000)
  23 O      3.973123    2.928961   11.885638    ( 0.0000,  0.0000,  0.0000)
  24 O      9.990889    6.696232    7.341894    ( 0.0000,  0.0000,  0.0000)
  25 O      4.511960    4.787917    8.184082    ( 0.0000,  0.0000,  0.0000)
  26 Ti     2.724858    4.779771    7.960807    ( 0.0000,  0.0000,  0.0000)
  27 Ti     8.145479    6.707698    8.192011    ( 0.0000,  0.0000,  0.0000)
  28 Ti     0.630398    6.695439    9.077253    ( 0.0000,  0.0000,  0.0000)
  29 Ti     6.062248    4.766294    9.148169    ( 0.0000,  0.0000,  0.0000)
  30 O      1.023957    4.767147    8.931551    ( 0.0000,  0.0000,  0.0000)
  31 O      6.358432    6.708779    8.938070    ( 0.0000,  0.0000,  0.0000)
  32 O      9.235162    6.764411    9.751167    ( 0.0000,  0.0000,  0.0000)
  33 O      7.850578    4.773562    8.386917    ( 0.0000,  0.0000,  0.0000)
  34 O      2.498268    6.663844    8.333080    ( 0.0000,  0.0000,  0.0000)
  35 O      1.040433    6.584084   11.106183    ( 0.0000,  0.0000,  0.0000)
  36 O      6.014686    4.759041   11.047591    ( 0.0000,  0.0000,  0.0000)
  37 Ti     4.372391    4.736113   12.347729    ( 0.0000,  0.0000,  0.0000)
  38 Ti     9.635943    6.686074   11.892644    ( 0.0000,  0.0000,  0.0000)
  39 Ti     2.011564    6.659728   12.858779    ( 0.0000,  0.0000,  0.0000)
  40 Ti     7.230618    4.785782   12.496842    ( 0.0000,  0.0000,  0.0000)
  41 O      2.529606    4.723065   12.989109    ( 0.0000,  0.0000,  0.0000)
  42 O      7.658156    6.639628   12.764795    ( 0.0000,  0.0000,  0.0000)
  43 O      0.293577    6.716760   13.463242    ( 0.0000,  0.0000,  0.0000)
  44 O      5.673842    4.751829   13.572927    ( 0.0000,  0.0000,  0.0000)
  45 O      9.112470    4.782346   11.848839    ( 0.0000,  0.0000,  0.0000)
  46 O      3.963404    6.538494   11.810129    ( 0.0000,  0.0000,  0.0000)
  47 O      9.941219   10.526766    7.424162    ( 0.0000,  0.0000,  0.0000)
  48 O      4.793812    8.598035    7.389240    ( 0.0000,  0.0000,  0.0000)
  49 Ti     2.924043    8.598447    8.231525    ( 0.0000,  0.0000,  0.0000)
  50 Ti     8.168624   10.568713    8.307193    ( 0.0000,  0.0000,  0.0000)
  51 Ti     0.689842   10.519812    9.160804    ( 0.0000,  0.0000,  0.0000)
  52 Ti     5.895270    8.633917    8.910762    ( 0.0000,  0.0000,  0.0000)
  53 O      1.085423    8.597422    8.995679    ( 0.0000,  0.0000,  0.0000)
  54 O      6.252646   10.528029    8.921193    ( 0.0000,  0.0000,  0.0000)
  55 O      9.220059   10.568411    9.844708    ( 0.0000,  0.0000,  0.0000)
  56 O      4.059029    8.507535    9.748930    ( 0.0000,  0.0000,  0.0000)
  57 O      7.758726    8.628199    8.273162    ( 0.0000,  0.0000,  0.0000)
  58 O      2.566398   10.490594    8.371621    ( 0.0000,  0.0000,  0.0000)
  59 O      1.023433   10.549373   11.124163    ( 0.0000,  0.0000,  0.0000)
  60 O      6.197645    8.515382   11.053251    ( 0.0000,  0.0000,  0.0000)
  61 Ti     4.279475    8.412866   11.647080    ( 0.0000,  0.0000,  0.0000)
  62 Ti     9.442189   10.604618   11.787857    ( 0.0000,  0.0000,  0.0000)
  63 Ti     2.215483   10.587852   12.583651    ( 0.0000,  0.0000,  0.0000)
  64 Ti     7.255489    8.547460   12.566505    ( 0.0000,  0.0000,  0.0000)
  65 O      2.521225    8.565352   12.445712    ( 0.0000,  0.0000,  0.0000)
  66 O      7.639655   10.487703   12.473448    ( 0.0000,  0.0000,  0.0000)
  67 O      0.052798   10.506248   13.510939    ( 0.0000,  0.0000,  0.0000)
  68 O      5.270968    8.514251   13.418242    ( 0.0000,  0.0000,  0.0000)
  69 O      9.058138    8.547889   11.856613    ( 0.0000,  0.0000,  0.0000)
  70 O      3.930977   10.536390   11.839190    ( 0.0000,  0.0000,  0.0000)
  71 O      9.924325   14.342583    7.441007    ( 0.0000,  0.0000,  0.0000)
  72 O      4.751345   12.420255    7.419069    ( 0.0000,  0.0000,  0.0000)
  73 Ti     2.956521   12.425773    8.321746    ( 0.0000,  0.0000,  0.0000)
  74 Ti     8.154962   14.365639    8.334509    ( 0.0000,  0.0000,  0.0000)
  75 Ti     0.650324   14.339133    8.977444    ( 0.0000,  0.0000,  0.0000)
  76 Ti     5.825252   12.455807    8.942724    ( 0.0000,  0.0000,  0.0000)
  77 O      1.076745   12.417342    8.959204    ( 0.0000,  0.0000,  0.0000)
  78 O      6.230080   14.350295    8.927239    ( 0.0000,  0.0000,  0.0000)
  79 O      9.212773   14.346204    9.869863    ( 0.0000,  0.0000,  0.0000)
  80 O      4.047363   12.465565    9.835258    ( 0.0000,  0.0000,  0.0000)
  81 O      7.738576   12.452498    8.352645    ( 0.0000,  0.0000,  0.0000)
  82 O      2.551770   14.335367    8.361171    ( 0.0000,  0.0000,  0.0000)
  83 O      1.090516   14.346910   11.007130    ( 0.0000,  0.0000,  0.0000)
  84 O      6.235829   12.478809   11.091458    ( 0.0000,  0.0000,  0.0000)
  85 Ti     4.535665   12.455590   11.884398    ( 0.0000,  0.0000,  0.0000)
  86 Ti     9.572297   14.347774   11.970433    ( 0.0000,  0.0000,  0.0000)
  87 Ti     2.029121   14.334736   12.517561    ( 0.0000,  0.0000,  0.0000)
  88 Ti     7.223835   12.471756   12.852436    ( 0.0000,  0.0000,  0.0000)
  89 O      2.495226   12.436806   12.780321    ( 0.0000,  0.0000,  0.0000)
  90 O      7.714836   14.378809   12.774477    ( 0.0000,  0.0000,  0.0000)
  91 O      0.403503   14.352117   13.392393    ( 0.0000,  0.0000,  0.0000)
  92 O      5.509273   12.410763   13.469854    ( 0.0000,  0.0000,  0.0000)
  93 O      9.162858   12.455820   11.880104    ( 0.0000,  0.0000,  0.0000)
  94 O      4.011497   14.347858   11.985713    ( 0.0000,  0.0000,  0.0000)
  95 V      3.953060    8.508352   14.685227    ( 0.0000,  0.0000,  0.0000)
  96 O      2.883474   10.090876   14.526850    ( 0.0000,  0.0000,  0.0000)
  97 O      3.014464    7.063883   14.518992    ( 0.0000,  0.0000,  0.0000)
  98 O      4.612162    8.566939   16.130168    ( 0.0000,  0.0000,  0.0000)
  99 V      9.073725   10.568595   14.758375    ( 0.0000,  0.0000,  0.0000)
 100 O      9.733216   10.542433   16.203284    ( 0.0000,  0.0000,  0.0000)
 101 O      8.000916    9.004589   14.582996    ( 0.0000,  0.0000,  0.0000)
 102 O      8.160073   12.027220   14.526641    ( 0.0000,  0.0000,  0.0000)
 103 H      7.988563    8.355384   15.311332    ( 0.0000,  0.0000,  0.0000)
 104 H      2.909528   10.749086   15.247234    ( 0.0000,  0.0000,  0.0000)

Unit cell:
           periodic     x           y           z      points  spacing
  1. axis:    yes   10.341746    0.000000    0.000000    54     0.1915
  2. axis:    yes   -0.000000   15.289380    0.000000    80     0.1911
  3. axis:    yes    0.000000    0.000000   23.497201   125     0.1880

  Lengths:  10.341746  15.289380  23.497201
  Angles:   90.000000  90.000000  90.000000

Effective grid spacing dv^(1/3) = 0.1902

                     log10-error:    total        iterations:
           time      wfs    density  energy       fermi  poisson
iter:   1  04:48:10  -5.50   +inf  -859.484251    3             
iter:   2  04:48:25  -6.35  -4.37  -859.484982    3             
iter:   3  04:48:40  -6.94  -4.47  -859.484845    2             
iter:   4  04:48:55  -6.99  -4.58  -859.484987    2             
iter:   5  04:49:10  -7.10  -4.70  -859.484956    2             
iter:   6  04:49:25  -7.12  -4.85  -859.484931    2             
iter:   7  04:49:40  -7.58  -4.99  -859.484954    2             

Converged after 7 iterations.

Dipole moment: (-3.371415, 1.184890, -0.817824) |e|*Ang

Energy contributions relative to reference atoms: (reference = -935653.237240)

Kinetic:       +622.412832
Potential:     -789.092797
External:        +0.000000
XC:            -698.890710
Entropy (-ST):   -0.557585
Local:           +6.364513
--------------------------
Free energy:   -859.763747
Extrapolated:  -859.484954

Fermi level: -1.20279

Showing all kpts
 Kpt  Band  Eigenvalues  Occupancy
  0   411     -3.32191    1.00000
  0   412     -1.12742    0.32003
  0   413     -1.10126    0.26595
  0   414     -1.04881    0.17657

  1   411     -3.32265    1.00000
  1   412     -1.11874    0.30143
  1   413     -1.10684    0.27699
  1   414     -1.05682    0.18852



Forces in eV/Ang:
  0 O    -1.56688   -0.10617    1.23877
  1 O    -1.01338    0.03147    1.25303
  2 Ti    2.45240    0.02818    1.11031
  3 Ti    2.87363    0.14454    0.69526
  4 Ti   -0.03325    0.17671   -1.45750
  5 Ti   -1.79720   -0.05558   -1.10459
  6 O     0.31246   -0.09154   -0.01265
  7 O    -0.05648    0.69660   -0.04669
  8 O    -1.49298    0.08359    0.28318
  9 O    -0.67577   -0.11041   -0.05571
 10 O     0.16759    0.48371   -1.05069
 11 O     0.45980   -0.20960   -1.01717
 12 O    -0.00176   -0.00032    0.00037
 13 O     0.00056   -0.00037   -0.00170
 14 Ti   -0.00121    0.00077   -0.00144
 15 Ti   -0.00088   -0.00008   -0.00080
 16 Ti   -0.00141    0.00007    0.00018
 17 Ti   -0.00059   -0.00094    0.00008
 18 O     0.00027    0.00090    0.00012
 19 O    -0.00155   -0.00039   -0.00131
 20 O    -0.00222   -0.00142   -0.00118
 21 O    -0.00131    0.00246   -0.00139
 22 O    -0.00203   -0.00080    0.00104
 23 O    -0.00164    0.00141   -0.00458
 24 O    -1.59884   -0.05829    1.94880
 25 O     0.52639   -0.03826    0.17868
 26 Ti   -0.67956    0.09529    0.76692
 27 Ti    4.29374    0.70148    0.80365
 28 Ti   -0.65855   -0.08791   -1.99996
 29 Ti    0.03137    0.21030   -0.15555
 30 O     0.28867   -0.01423    0.03656
 31 O    -0.46612   -0.79530    0.00176
 32 O    -1.54912   -0.13951    0.67162
 33 O    -0.65902   -0.35704   -0.77158
 34 O     0.60257    0.16447   -1.16538
 35 O    -0.00125    0.00131    0.00070
 36 O     0.00094    0.00099   -0.00056
 37 Ti   -0.00054   -0.00026   -0.00134
 38 Ti   -0.00043   -0.00046   -0.00003
 39 Ti   -0.00005    0.00050    0.00006
 40 Ti   -0.00081    0.00040    0.00001
 41 O     0.00011   -0.00183    0.00197
 42 O    -0.00135    0.00021    0.00056
 43 O    -0.00062   -0.00021    0.00065
 44 O    -0.00131   -0.00146   -0.00124
 45 O    -0.00124   -0.00039    0.00003
 46 O    -0.00186   -0.00077    0.00107
 47 O    -1.52847    0.03457    2.31715
 48 O    -0.97077   -0.00836    1.23327
 49 Ti    2.45601   -0.23145    0.95595
 50 Ti    3.17624   -0.20224   -0.32430
 51 Ti   -0.61098   -0.08912   -2.60868
 52 Ti   -1.33705    0.13107   -1.23582
 53 O     0.26033    0.28394    0.11780
 54 O     0.04850   -0.08598    0.03338
 55 O    -0.89420   -0.20577    0.28220
 56 O    -0.88448    0.09235    0.14650
 57 O     0.12061    0.11861   -0.79759
 58 O     0.11027    0.11331   -0.65537
 59 O    -0.00060    0.00056    0.00079
 60 O     0.00084   -0.00174    0.00089
 61 Ti    0.00083    0.00061   -0.00045
 62 Ti    0.00088    0.00026   -0.00169
 63 Ti   -0.00253    0.00141   -0.00161
 64 Ti   -0.00029   -0.00088    0.00002
 65 O    -0.00036   -0.00046   -0.00104
 66 O    -0.00044    0.00087   -0.00002
 67 O     0.00072    0.00121    0.00049
 68 O    -0.00074    0.00168    0.00034
 69 O    -0.00009    0.00102    0.00097
 70 O     0.00067   -0.00028   -0.00076
 71 O    -1.12564    0.01821    1.30451
 72 O    -1.02555    0.06326    1.22241
 73 Ti    2.68455   -0.00881    0.98332
 74 Ti    2.88118   -0.90590    0.94455
 75 Ti   -1.02773   -0.03892   -1.18599
 76 Ti   -1.13998   -0.36709   -0.62955
 77 O     0.17806   -0.08171    0.12028
 78 O     0.19432    0.04692   -0.15856
 79 O    -0.66619    0.13302   -0.13543
 80 O    -0.83594   -0.04761   -0.27959
 81 O     0.06440    0.00714   -0.86197
 82 O     0.22130    0.16448   -0.94722
 83 O    -0.00106    0.00103    0.00017
 84 O    -0.00126   -0.00075   -0.00191
 85 Ti   -0.00025    0.00056   -0.00101
 86 Ti   -0.00015    0.00052   -0.00001
 87 Ti    0.00042    0.00101   -0.00046
 88 Ti   -0.00037    0.00038   -0.00046
 89 O     0.00135   -0.00042    0.00000
 90 O    -0.00155   -0.00086   -0.00074
 91 O     0.00094   -0.00125    0.00090
 92 O    -0.00033   -0.00031   -0.00074
 93 O    -0.00049    0.00007   -0.00068
 94 O     0.00044    0.00081   -0.00089
 95 V    -0.00008   -0.00121   -0.00299
 96 O    -0.00385   -0.00137   -0.00404
 97 O    -0.00160    0.00008    0.00057
 98 O    -0.00064    0.00182   -0.00359
 99 V    -0.00089   -0.00043    0.00085
100 O     0.00215    0.00076    0.00313
101 O    -0.00076    0.00010    0.00009
102 O    -0.00065   -0.00010   -0.00168
103 H    -0.00180    0.00090    0.00048
104 H    -0.00307   -0.00522   -0.00586

Timing:                                      incl.     excl.
-------------------------------------------------------------------
Density initialized from wave functions:   167.485   167.483   0.7% |
 Symmetrize density:                         0.002     0.002   0.0% |
Forces:                                    982.433   982.433   4.0% |-|
Hamiltonian:                               151.697     1.934   0.0% |
 Atomic:                                    10.478     0.209   0.0% |
  XC Correction:                            10.269    10.269   0.0% |
 Calculate atomic Hamiltonians:             95.800    95.800   0.4% |
 Communicate:                               16.788    16.788   0.1% |
 Initialize Hamiltonian:                     0.001     0.001   0.0% |
 Poisson:                                    0.188     0.188   0.0% |
 XC 3D grid:                                26.508    26.508   0.1% |
LCAO initialization:                        54.086     1.602   0.0% |
 LCAO eigensolver:                          13.954     0.018   0.0% |
  Calculate projections:                     0.005     0.005   0.0% |
  DenseAtomicCorrection:                     0.011     0.011   0.0% |
  Distribute overlap matrix:                 5.182     5.182   0.0% |
  Orbital Layouts:                           7.912     7.912   0.0% |
  Potential matrix:                          0.507     0.507   0.0% |
  Sum over cells:                            0.319     0.319   0.0% |
 LCAO to grid:                              37.057    37.057   0.2% |
 Set positions (LCAO WFS):                   1.472     1.164   0.0% |
  Basic WFS set positions:                   0.003     0.003   0.0% |
  Basis functions set positions:             0.001     0.001   0.0% |
  P tci:                                     0.015     0.015   0.0% |
  ST tci:                                    0.127     0.127   0.0% |
  mktci:                                     0.164     0.164   0.0% |
PWDescriptor:                                0.122     0.122   0.0% |
Redistribute:                                0.105     0.105   0.0% |
SCF-cycle:                               22826.298    42.874   0.2% |
 Davidson:                               19332.882  4710.920  19.3% |-------|
  Apply H:                                3699.674  3592.900  14.7% |-----|
   HMM T:                                  106.774   106.774   0.4% |
  Subspace diag:                          2402.546     0.187   0.0% |
   calc_h_matrix:                         1591.810   354.037   1.5% ||
    Apply H:                              1237.772  1198.788   4.9% |-|
     HMM T:                                 38.984    38.984   0.2% |
   diagonalize:                            170.718   170.718   0.7% |
   rotate_psi:                             639.832   639.832   2.6% ||
  calc. matrices:                         4948.375  2498.006  10.3% |---|
   Apply H:                               2450.368  2381.046   9.8% |---|
    HMM T:                                  69.323    69.323   0.3% |
  diagonalize:                            2253.748  2253.748   9.2% |---|
  rotate_psi:                             1317.618  1317.618   5.4% |-|
 Density:                                 1742.964     0.032   0.0% |
  Atomic density matrices:                   9.633     9.633   0.0% |
  Mix:                                    1100.577  1100.577   4.5% |-|
  Multipole moments:                         0.575     0.575   0.0% |
  Pseudo density:                          632.147   632.124   2.6% ||
   Symmetrize density:                       0.023     0.023   0.0% |
 Hamiltonian:                             1556.975    20.726   0.1% |
  Atomic:                                  106.927     1.202   0.0% |
   XC Correction:                          105.724   105.724   0.4% |
  Calculate atomic Hamiltonians:           982.080   982.080   4.0% |-|
  Communicate:                             174.212   174.212   0.7% |
  Poisson:                                   2.339     2.339   0.0% |
  XC 3D grid:                              270.692   270.692   1.1% |
 Orthonormalize:                           150.603     0.028   0.0% |
  calc_s_matrix:                            15.920    15.920   0.1% |
  inverse-cholesky:                          6.986     6.986   0.0% |
  projections:                              99.300    99.300   0.4% |
  rotate_psi_s:                             28.368    28.368   0.1% |
Set symmetry:                                0.001     0.001   0.0% |
Other:                                     183.234   183.234   0.8% |
-------------------------------------------------------------------
Total:                                             24365.460 100.0%

Memory usage: 991.79 MiB
Date: Sat Feb 29 04:49:48 2020
