115
Lattice="10.341746277552646 0.0 0.0 -2.619435405085487e-16 11.467 0.0 0.0 0.0 23.497200848665354" Properties=species:S:1:pos:R:3:forces:R:3 energy=-845.1030262576044 dipole="-17.898980219352794 7.652987164444221 -1.4774493935539201" pbc="T T F"
O       8.47657182       1.91117250       6.00000000      -1.83434224       0.00882594       1.57823016 
O       3.30569868       0.00000000       6.00000000      -1.87753978      -0.00098431       1.56890138 
Ti       1.41275186       0.00000000       6.75295684       3.84805091       0.00473439       1.96587460 
Ti       6.58362500       1.91117250       6.75295684       3.86031310      -0.03124452       1.99368906 
Ti       9.52224953       1.91117250       7.64087763      -2.00465278      -0.03106261      -2.03507275 
Ti       4.35137640       0.00000000       7.64087763      -1.89622560       0.00460060      -2.07490954 
O       9.86155132       0.00000000       7.50591367       0.92421846       0.02357216      -0.19032841 
O       4.69067818       1.91117250       7.50591367       0.87031768       0.07798716      -0.18327106 
O       7.62930272       1.91117250       8.39383447      -0.81896979       0.01994377      -0.52848009 
O       2.45842958       0.00000000       8.39383447      -0.83270132       0.01938532      -0.55649304 
O       6.24432321       0.00000000       6.88792080      -0.23221477       0.00033753      -0.73705752 
O       1.07345007       1.91117250       6.88792080      -0.18289396       0.09378939      -0.73294315 
O       9.80052428       1.92608092       9.58767237       0.00519497      -0.00229897       0.00513323 
O       4.63551608       0.00362753       9.58038642       0.00030019      -0.00087510       0.01139383 
Ti       2.74827527       0.00163232      10.38662569       0.00032488      -0.00816187       0.00863356 
Ti       7.92571128       1.91978453      10.39517477       0.00598981       0.00122182       0.00347791 
Ti       0.48633309       1.94135288      11.12981095       0.00853075       0.01061649      -0.00453879 
Ti       5.64543972       0.01020148      11.12858416      -0.00963620      -0.00493377      -0.00057664 
O       0.89945923       0.01191875      11.07979853       0.00651452      -0.00019379       0.00303836 
O       6.08188674       1.91770361      11.09443141       0.01129191       0.00745477       0.00371529 
O       9.03007977       1.93448517      11.96365444       0.00925388      -0.01403322      -0.00996469 
O       3.86090042       0.01381629      11.94206378       0.00872589      -0.00326776      -0.01811708 
O       7.56100307       0.00584921      10.44965372      -0.00714854       0.00139559       0.00332650 
O       2.37612230       1.92840701      10.44787166      -0.00899871       0.01178976       0.00119002 
O       0.93930160       1.91825767      13.08004177      -0.00054883       0.00502084       0.00444947 
O       6.11731701      11.43678505      13.07377205      -0.00236814      -0.00076200       0.00311112 
Ti       4.22280385      11.41633353      14.02175921       0.00792598      -0.00453495      -0.00488287 
Ti       9.39440181       1.82033168      14.02939915      -0.00356497      -0.02187134       0.00575196 
Ti       1.85350766       1.92342473      14.60627178      -0.00233690      -0.00429705       0.00474945 
Ti       7.01278388      11.43848322      14.60456911       0.00494999       0.00499147       0.01038544 
O       2.39546879       0.01051132      14.81247453       0.00214741      -0.01483115      -0.00695609 
O       7.56615187       1.83860726      14.77820731       0.01214351      -0.01197291       0.00615783 
O       0.22874658       1.82492954      15.45237220      -0.00571390      -0.02199686      -0.00791553 
O       5.40307326      -0.00842997      15.45456801       0.01438660       0.00721686      -0.00319055 
O       9.03826599      11.42942197      13.95281342      -0.00463030       0.00817428      -0.00378122 
O       3.84979156       1.92063423      13.95690458      -0.01642307       0.00337875       0.00213512 
O       8.47657182       5.73351750       6.00000000      -1.83793381       0.00099596       1.54928433 
O       3.30569868       3.82234500       6.00000000      -1.85723399       0.00639987       1.62209253 
Ti       1.41275186       3.82234500       6.75295684       3.64969391      -0.04861355       1.79964379 
Ti       6.58362500       5.73351750       6.75295684       3.89214970      -0.01091717       1.96518719 
Ti       9.52224953       5.73351750       7.64087763      -1.89025476       0.00000812      -1.63349629 
Ti       4.35137640       3.82234500       7.64087763      -1.61469373      -0.03931306      -1.77773559 
O       9.86155132       3.82234500       7.50591367       0.97442563       0.02900279      -0.22704242 
O       4.69067818       5.73351750       7.50591367       0.85320976      -0.01358981      -0.17506282 
O       7.62930272       5.73351750       8.39383447      -0.90577954      -0.02036841      -0.69262396 
O       2.45842958       3.82234500       8.39383447      -0.82842112       0.02763778      -0.51741847 
O       6.24432321       3.82234500       6.88792080      -0.28995482       0.02724070      -0.67312875 
O       1.07345007       5.73351750       6.88792080      -0.17016627       0.01038591      -0.68896639 
O       9.79883771       5.74058149       9.61230882       0.01085556       0.00382009       0.01885635 
O       4.63685006       3.82341329       9.61767341      -0.00156034       0.00264571      -0.00087634 
Ti       2.78357897       3.83034815      10.33225217       0.01085055       0.00026005       0.02083649 
Ti       8.03237551       5.71808959      10.35458843      -0.01244437      -0.00666458       0.00098807 
Ti       0.50704090       5.71530858      11.33020619      -0.01410428      -0.00674926       0.00255159 
Ti       5.69698162       3.85696725      11.22328481      -0.00721157      -0.00567446       0.00661942 
O       0.89975413       3.83882407      11.09614416       0.00097567      -0.00164004      -0.00341255 
O       6.05499204       5.72467829      11.10513295       0.00712607      -0.00354665       0.00590143 
O       9.03882229       5.69585854      11.98496008       0.00672607       0.01205285      -0.01511074 
O       3.85280310       3.82464832      11.96868075       0.00963360      -0.00437538      -0.00732906 
O       7.55060580       3.83255806      10.45762548      -0.01933106      -0.00416011       0.01259854 
O       2.38614210       5.73113243      10.45623009       0.00288235      -0.01090783      -0.00783107 
O       0.91661120       5.75965387      13.22341598      -0.01450093      -0.01037022      -0.00089944 
O       6.05322842       3.80653949      13.24650104      -0.00947395       0.00524515      -0.00171662 
Ti       4.22823489       3.75798686      13.87980429       0.00731448      -0.00035881      -0.01923994 
Ti       9.52419312       5.76396925      14.08294046       0.00382346      -0.00101166       0.02857727 
Ti       1.96856291       5.68269400      15.06202970       0.02325186      -0.00952241       0.01601695 
Ti       7.26094683       3.83282070      14.83945018       0.00484634      -0.00545397      -0.01155586 
O       2.35683814       3.79466991      14.81599954      -0.01125170      -0.00532843      -0.00360495 
O       7.53173750       5.78623450      14.79281469       0.00551393      -0.00623740       0.00369207 
O       0.22116776       5.74875338      15.61086150      -0.00682701      -0.00952193      -0.01374945 
O       5.19665017       3.82781587      15.63360922      -0.01208800       0.01253994      -0.00404646 
O       9.01909302       3.83110414      14.13326030      -0.01910184      -0.02593165      -0.00223789 
O       3.83416608       5.73329814      13.94010493       0.00168116      -0.00338222       0.00919110 
O       8.47657182       9.55586250       6.00000000      -1.85033372      -0.00334745       1.57180562 
O       3.30569868       7.64469000       6.00000000      -1.90721071      -0.00948616       1.62572477 
Ti       1.41275186       7.64469000       6.75295684       3.60029693       0.04402473       1.74243768 
Ti       6.58362500       9.55586250       6.75295684       3.87033123       0.04064703       1.98008093 
Ti       9.52224953       9.55586250       7.64087763      -1.99575567       0.02442138      -2.06589218 
Ti       4.35137640       7.64469000       7.64087763      -1.61450769       0.03892846      -2.03176051 
O       9.86155132       7.64469000       7.50591367       0.97875701      -0.00801729      -0.21893268 
O       4.69067818       9.55586250       7.50591367       0.87174284      -0.06501412      -0.17399861 
O       7.62930272       9.55586250       8.39383447      -0.81209204      -0.02349736      -0.53937004 
O       2.45842958       7.64469000       8.39383447      -0.86703348      -0.00773488      -0.47871132 
O       6.24432321       7.64469000       6.88792080      -0.28063007      -0.03034385      -0.70790735 
O       1.07345007       9.55586250       6.88792080      -0.17495998      -0.09991880      -0.73180008 
O       9.80693657       9.56337025       9.58108406       0.00820532      -0.00360216       0.00766796 
O       4.63120403       7.63839129       9.58946156       0.00879202      -0.00311274       0.00653565 
Ti       2.70139235       7.62226878      10.33764134       0.00875868      -0.01250363       0.00621263 
Ti       7.92343820       9.58423427      10.39411388       0.00952623       0.00007013       0.00625100 
Ti       0.48217896       9.57125790      11.12414484       0.00496052      -0.00760491      -0.00300971 
Ti       5.71351957       7.61578911      11.08751346      -0.02182684       0.01457604      -0.00395644 
O       0.90246695       7.64067751      11.09110708       0.00767032      -0.00430121      -0.00504666 
O       6.07951351       9.55628015      11.07613953       0.01452826      -0.00777260       0.00096122 
O       9.02602045       9.54073104      11.94418014       0.00724527      -0.00570467      -0.00073288 
O       3.82231524       7.65023194      11.94482585       0.00967473      -0.00580206       0.01468714 
O       7.54629205       7.62659012      10.45205076      -0.00608507       0.00487579       0.00651976 
O       2.37277705       9.56111934      10.44652283      -0.01812612      -0.00834599       0.00734314 
O       0.92459623       9.58623981      13.07916749       0.00772877      -0.00808259      -0.00442883 
O       6.05778385       7.66101914      13.10130942       0.00101166      -0.00561271      -0.00727583 
Ti       4.06523835       7.56155163      13.80695739       0.02178270       0.00445625      -0.00201323 
Ti       9.40641486       9.53774011      14.03327409      -0.00856191       0.00261449       0.00025671 
Ti       1.86225298       9.59272586      14.59627441      -0.01092352      -0.00876489       0.00538912 
Ti       7.04250686       7.61750381      14.57358545      -0.00553607      -0.01426414      -0.00647684 
O       2.38859691       7.72280863      14.75362665       0.01149428      -0.00450804      -0.00683678 
O       7.55209208       9.52552778      14.81837187       0.00272879       0.00125621      -0.00412834 
O       0.23173561       9.53968072      15.45305748       0.00196668       0.00715006       0.00666377 
O       5.36609993       7.49284201      15.57808663      -0.01215289       0.00605270       0.01756617 
O       8.99219911       7.63391279      13.97136611       0.00418870      -0.00660819       0.00554609 
O       3.86622338       9.58042138      13.95577236      -0.01851844      -0.00760038       0.00780970 
V       5.86746605       4.00354772      17.27641624       0.00480034      -0.01944940      -0.00518135 
V       4.45977495       6.82972049      17.06268533       0.00965731      -0.01189902       0.01354421 
O       7.52254634       3.80783391      16.73030591      -0.00172069       0.00956065       0.00613775 
O       4.09845772       8.03657711      18.04481628      -0.00000044      -0.01050294      -0.01058773 
O       5.39367633       2.85712874      18.28572925      -0.00488362      -0.02091042      -0.01067374 
O       5.56515997       5.70650668      17.86919282       0.00524978      -0.01950000      -0.00528143 
O       2.99842462       5.94183492      16.60365023      -0.00302545       0.00862185       0.00969458 
