
  ___ ___ ___ _ _ _  
 |   |   |_  | | | | 
 | | | | | . | | | | 
 |__ |  _|___|_____|  1.5.1
 |___|_|             

User:   siva@s81n24.grendel.cscaa.dk
Date:   Fri May 24 10:23:35 2019
Arch:   x86_64
Pid:    13697
Python: 3.6.3
gpaw:   /home/siva/gpaw-1.5.1/gpaw
_gpaw:  /home/siva/gpaw-1.5.1/build/bin.linux-x86_64-3.6/gpaw-python
ase:    /home/siva/env1.5/lib/python3.6/site-packages/ase (version 3.17.0)
numpy:  /home/siva/env1.5/lib/python3.6/site-packages/numpy (version 1.16.0)
scipy:  /home/siva/env1.5/lib/python3.6/site-packages/scipy (version 1.2.0)
units:  Angstrom and eV
cores:  24
Extra parameters: {'blacs': True}

Input parameters:
  basis: dzp
  kpts: [3 3 1]
  mode: {ecut: 500.0,
         gammacentered: False,
         name: pw}
  xc: PBE

System changes: positions, numbers, cell, pbc, initial_charges, initial_magmoms 

Initialize ...

O-setup:
  name: Oxygen
  id: 32ecd46bf208036f09c70b0ec9a88b78
  Z: 8
  valence: 6
  core: 2
  charge: 0.0
  file: /home/wido/sw/gpaw/basis/gpaw-setups-0.9.20000/O.PBE.gz
  cutoffs: 0.67(comp), 1.17(filt), 0.83(core), lmax=2
  valence states:
                energy  radius
    2s(2.00)   -23.961   0.688
    2p(4.00)    -9.029   0.598
    *s           3.251   0.688
    *p          18.182   0.598
    *d           0.000   0.619

  LCAO basis set for O:
    Name: dzp
    File: /home/wido/sw/gpaw/basis/gpaw-setups-0.9.20000/O.dzp.basis.gz
    Number of radial functions: 5
    Number of spherical harmonics: 13
      l=0, rc=4.3438 Bohr: 2s-sz confined orbital
      l=1, rc=5.3906 Bohr: 2p-sz confined orbital
      l=0, rc=2.2969 Bohr: 2s-dz split-valence wave
      l=1, rc=2.8906 Bohr: 2p-dz split-valence wave
      l=2, rc=5.3906 Bohr: d-type Gaussian polarization

Ti-setup:
  name: Titanium
  id: d282db07e62ae71292040bf25b25ccdd
  Z: 22
  valence: 12
  core: 10
  charge: 0.0
  file: /home/wido/sw/gpaw/basis/gpaw-setups-0.9.20000/Ti.PBE.gz
  cutoffs: 1.22(comp), 2.23(filt), 1.02(core), lmax=2
  valence states:
                energy  radius
    3s(2.00)   -62.623   1.270
    4s(2.00)    -4.466   1.270
    3p(6.00)   -38.862   1.058
    4p(0.00)    -1.466   1.058
    3d(2.00)    -4.258   1.058
    *d          22.953   1.058

  LCAO basis set for Ti:
    Name: dzp
    File: /home/wido/sw/gpaw/basis/gpaw-setups-0.9.20000/Ti.dzp.basis.gz
    Number of radial functions: 11
    Number of spherical harmonics: 29
      l=0, rc=3.4375 Bohr: 3s-sz confined orbital
      l=0, rc=9.9062 Bohr: 4s-sz confined orbital
      l=1, rc=3.8906 Bohr: 3p-sz confined orbital
      l=1, rc=13.1094 Bohr: 4p-sz confined orbital
      l=2, rc=6.6250 Bohr: 3d-sz confined orbital
      l=0, rc=2.1406 Bohr: 3s-dz split-valence wave
      l=0, rc=6.0156 Bohr: 4s-dz split-valence wave
      l=1, rc=2.3125 Bohr: 3p-dz split-valence wave
      l=1, rc=8.1094 Bohr: 4p-dz split-valence wave
      l=2, rc=3.8594 Bohr: 3d-dz split-valence wave
      l=1, rc=9.9062 Bohr: p-type Gaussian polarization

V-setup:
  name: Vanadium
  id: a8354638d66c808f8c867a10b63fd727
  Z: 23
  valence: 13
  core: 10
  charge: 0.0
  file: /home/wido/sw/gpaw/basis/gpaw-setups-0.9.20000/V.PBE.gz
  cutoffs: 1.19(comp), 2.14(filt), 0.96(core), lmax=2
  valence states:
                energy  radius
    3s(2.00)   -70.222   1.254
    4s(2.00)    -4.702   1.254
    3p(6.00)   -44.043   1.281
    4p(0.00)    -1.444   1.281
    3d(3.00)    -5.164   1.169
    *d          22.047   1.169

  LCAO basis set for V:
    Name: dzp
    File: /home/wido/sw/gpaw/basis/gpaw-setups-0.9.20000/V.dzp.basis.gz
    Number of radial functions: 11
    Number of spherical harmonics: 29
      l=0, rc=3.2656 Bohr: 3s-sz confined orbital
      l=0, rc=9.5312 Bohr: 4s-sz confined orbital
      l=1, rc=3.6719 Bohr: 3p-sz confined orbital
      l=1, rc=12.8750 Bohr: 4p-sz confined orbital
      l=2, rc=6.0938 Bohr: 3d-sz confined orbital
      l=0, rc=2.0625 Bohr: 3s-dz split-valence wave
      l=0, rc=5.7656 Bohr: 4s-dz split-valence wave
      l=1, rc=2.4062 Bohr: 3p-dz split-valence wave
      l=1, rc=7.8906 Bohr: 4p-dz split-valence wave
      l=2, rc=3.6562 Bohr: 3d-dz split-valence wave
      l=1, rc=9.5312 Bohr: p-type Gaussian polarization

H-setup:
  name: Hydrogen
  id: d65de229564ff8ea4db303e23b6d1ecf
  Z: 1
  valence: 1
  core: 0
  charge: 0.0
  file: /home/wido/sw/gpaw/basis/gpaw-setups-0.9.20000/H.PBE.gz
  cutoffs: 0.48(comp), 0.85(filt), 0.53(core), lmax=2
  valence states:
                energy  radius
    1s(1.00)    -6.494   0.476
    *s          20.717   0.476
    *p           0.000   0.476

  LCAO basis set for H:
    Name: dzp
    File: /home/wido/sw/gpaw/basis/gpaw-setups-0.9.20000/H.dzp.basis.gz
    Number of radial functions: 3
    Number of spherical harmonics: 5
      l=0, rc=6.4219 Bohr: 1s-sz confined orbital
      l=0, rc=3.6094 Bohr: 1s-dz split-valence wave
      l=1, rc=6.4219 Bohr: p-type Gaussian polarization

Reference energy: -1046916.965077

Spin-paired calculation

Occupation numbers:
  Fermi-Dirac: width=0.1000 eV

Convergence criteria:
  Maximum total energy change: 0.0005 eV / electron
  Maximum integral of absolute density change: 0.0001 electrons
  Maximum integral of absolute eigenstate change: 4e-08 eV^2
  Maximum number of iterations: 333

Symmetries present (total): 1

  ( 1  0  0)
  ( 0  1  0)
  ( 0  0  1)

9 k-points: 3 x 3 x 1 Monkhorst-Pack grid
5 k-points in the irreducible part of the Brillouin zone
       k-points in crystal coordinates                weights
   0:     0.00000000    0.00000000    0.00000000          1/9
   1:     0.00000000    0.33333333    0.00000000          2/9
   2:     0.33333333   -0.33333333    0.00000000          2/9
   3:     0.33333333    0.00000000    0.00000000          2/9
   4:     0.33333333    0.33333333    0.00000000          2/9

Wave functions: Plane wave expansion
  Cutoff energy: 500.000 eV
  Number of coefficients (min, max): 70673, 70768
  Pulay-stress correction: 0.000000 eV/Ang^3 (de/decut=0.000000)
  Using FFTW library
  ScaLapack parameters: grid=1x1, blocksize=None
  Wavefunction extrapolation:
    Improved wavefunction reuse through dual PAW basis 

Eigensolver
   Davidson(niter=2, smin=None, normalize=True) 

Densities:
  Coarse grid: 54*60*125 grid
  Fine grid: 108*120*250 grid
  Total Charge: 0.000000 

Density mixing:
  Method: separate
  Backend: pulay
  Linear mixing parameter: 0.05
  Mixing with 5 old densities
  Damping of long wave oscillations: 50 

Hamiltonian:
  XC and Coulomb potentials evaluated on a 108*120*250 grid
  Using the PBE Exchange-Correlation functional
 

XC parameters: PBE with 2 nearest neighbor stencil

Memory estimate:
  Process memory now: 275.46 MiB
  Calculator: 3724.19 MiB
    Density: 10.38 MiB
      Arrays: 3.37 MiB
      Localized functions: 5.71 MiB
      Mixer: 1.30 MiB
    Hamiltonian: 2.37 MiB
      Arrays: 2.21 MiB
      XC: 0.00 MiB
      Poisson: 0.00 MiB
      vbar: 0.17 MiB
    Wavefunctions: 3711.44 MiB
      Arrays psit_nG: 3028.93 MiB
      Eigensolver: 659.23 MiB
      Projections: 3.05 MiB
      Projectors: 3.26 MiB
      PW-descriptor: 16.97 MiB

Total number of cores used: 24
Domain decomposition: 2 x 2 x 6

Number of atoms: 118
Number of atomic orbitals: 2126
Number of bands in calculation: 561
Bands to converge: occupied states only
Number of valence electrons: 928

... initialized

Initializing position-dependent things.

Density initialized from atomic densities
Creating initial wave functions:
  561 bands from LCAO basis set

                                                
                                                
                                                
                                                
                                                
                                                
                      O                         
                                                
                      V O       HiH             
             O    O   O         O    O          
                  Ti   OVO   O      Ti          
           O   O  O         OTi                 
               Ti     Oi   O O    O             
         O     O    O      Ti     Ti            
             Tii    Ti     OO   O               
             OO   OOO   O Ti   TiOi             
          O Ti   TiOi     O    O     O          
                O      Ti     TiO               
            O   TiO      O  O  O   O Ti         
         Ti     O    O Oi    Ti     O           
         O    OTi    Ti    OTiO   O             
             OTi    O O   O     O Ti            
                  O Ti     Oi     O             
             Oi     O    O      Ti              
           O      Ti    Ti     O                
          Ti          O      O                  
               O                                
                                                
                                                
                                                
                                                

Positions:
   0 O      8.476572    1.911173    6.000000    ( 0.0000,  0.0000,  0.0000)
   1 O      3.305699    0.000000    6.000000    ( 0.0000,  0.0000,  0.0000)
   2 Ti     1.412752    0.000000    6.752957    ( 0.0000,  0.0000,  0.0000)
   3 Ti     6.583625    1.911173    6.752957    ( 0.0000,  0.0000,  0.0000)
   4 Ti     9.522250    1.911173    7.640878    ( 0.0000,  0.0000,  0.0000)
   5 Ti     4.351376    0.000000    7.640878    ( 0.0000,  0.0000,  0.0000)
   6 O      9.861551    0.000000    7.505914    ( 0.0000,  0.0000,  0.0000)
   7 O      4.690678    1.911173    7.505914    ( 0.0000,  0.0000,  0.0000)
   8 O      7.629303    1.911173    8.393834    ( 0.0000,  0.0000,  0.0000)
   9 O      2.458430    0.000000    8.393834    ( 0.0000,  0.0000,  0.0000)
  10 O      6.244323    0.000000    6.887921    ( 0.0000,  0.0000,  0.0000)
  11 O      1.073450    1.911173    6.887921    ( 0.0000,  0.0000,  0.0000)
  12 O      9.797932    1.928107    9.583141    ( 0.0000,  0.0000,  0.0000)
  13 O      4.639713    0.005150    9.579265    ( 0.0000,  0.0000,  0.0000)
  14 Ti     2.750710    0.019264   10.388033    ( 0.0000,  0.0000,  0.0000)
  15 Ti     7.924062    1.916598   10.392358    ( 0.0000,  0.0000,  0.0000)
  16 Ti     0.482966    1.931533   11.125913    ( 0.0000,  0.0000,  0.0000)
  17 Ti     5.645035    0.008540   11.132435    ( 0.0000,  0.0000,  0.0000)
  18 O      0.906816    0.018495   11.066776    ( 0.0000,  0.0000,  0.0000)
  19 O      6.080292    1.917378   11.094875    ( 0.0000,  0.0000,  0.0000)
  20 O      9.030249    1.924194   11.955443    ( 0.0000,  0.0000,  0.0000)
  21 O      3.855590    0.005498   11.941717    ( 0.0000,  0.0000,  0.0000)
  22 O      7.556732    0.003324   10.449720    ( 0.0000,  0.0000,  0.0000)
  23 O      2.386013    1.927488   10.445655    ( 0.0000,  0.0000,  0.0000)
  24 O      0.930466    1.920224   13.077176    ( 0.0000,  0.0000,  0.0000)
  25 O      6.098708   11.449679   13.075303    ( 0.0000,  0.0000,  0.0000)
  26 Ti     4.213907   -0.051191   14.030473    ( 0.0000,  0.0000,  0.0000)
  27 Ti     9.397759    1.828320   14.027591    ( 0.0000,  0.0000,  0.0000)
  28 Ti     1.853756    1.920310   14.600772    ( 0.0000,  0.0000,  0.0000)
  29 Ti     7.005187   11.445581   14.603388    ( 0.0000,  0.0000,  0.0000)
  30 O      2.384327    0.004048   14.817173    ( 0.0000,  0.0000,  0.0000)
  31 O      7.563160    1.835746   14.786981    ( 0.0000,  0.0000,  0.0000)
  32 O      0.225438    1.847591   15.452004    ( 0.0000,  0.0000,  0.0000)
  33 O      5.398246   -0.003622   15.458275    ( 0.0000,  0.0000,  0.0000)
  34 O      9.043567   11.436431   13.948854    ( 0.0000,  0.0000,  0.0000)
  35 O      3.834299    1.912111   13.952903    ( 0.0000,  0.0000,  0.0000)
  36 O      8.476572    5.733518    6.000000    ( 0.0000,  0.0000,  0.0000)
  37 O      3.305699    3.822345    6.000000    ( 0.0000,  0.0000,  0.0000)
  38 Ti     1.412752    3.822345    6.752957    ( 0.0000,  0.0000,  0.0000)
  39 Ti     6.583625    5.733518    6.752957    ( 0.0000,  0.0000,  0.0000)
  40 Ti     9.522250    5.733518    7.640878    ( 0.0000,  0.0000,  0.0000)
  41 Ti     4.351376    3.822345    7.640878    ( 0.0000,  0.0000,  0.0000)
  42 O      9.861551    3.822345    7.505914    ( 0.0000,  0.0000,  0.0000)
  43 O      4.690678    5.733518    7.505914    ( 0.0000,  0.0000,  0.0000)
  44 O      7.629303    5.733518    8.393834    ( 0.0000,  0.0000,  0.0000)
  45 O      2.458430    3.822345    8.393834    ( 0.0000,  0.0000,  0.0000)
  46 O      6.244323    3.822345    6.887921    ( 0.0000,  0.0000,  0.0000)
  47 O      1.073450    5.733518    6.887921    ( 0.0000,  0.0000,  0.0000)
  48 O      9.793768    5.747564    9.602030    ( 0.0000,  0.0000,  0.0000)
  49 O      4.641884    3.829558    9.615327    ( 0.0000,  0.0000,  0.0000)
  50 Ti     2.783885    3.829626   10.332397    ( 0.0000,  0.0000,  0.0000)
  51 Ti     8.011650    5.727848   10.351834    ( 0.0000,  0.0000,  0.0000)
  52 Ti     0.533076    5.714817   11.276444    ( 0.0000,  0.0000,  0.0000)
  53 Ti     5.701854    3.851380   11.220981    ( 0.0000,  0.0000,  0.0000)
  54 O      0.905077    3.829033   11.081862    ( 0.0000,  0.0000,  0.0000)
  55 O      6.059663    5.732238   11.115758    ( 0.0000,  0.0000,  0.0000)
  56 O      9.025805    5.696857   11.967050    ( 0.0000,  0.0000,  0.0000)
  57 O      3.848546    3.820020   11.962276    ( 0.0000,  0.0000,  0.0000)
  58 O      7.543524    3.831838   10.457094    ( 0.0000,  0.0000,  0.0000)
  59 O      2.385127    5.737316   10.452989    ( 0.0000,  0.0000,  0.0000)
  60 O      0.902953    5.727986   13.144655    ( 0.0000,  0.0000,  0.0000)
  61 O      6.045158    3.798973   13.241418    ( 0.0000,  0.0000,  0.0000)
  62 Ti     4.211398    3.762230   13.871551    ( 0.0000,  0.0000,  0.0000)
  63 Ti     9.472847    5.754552   13.972905    ( 0.0000,  0.0000,  0.0000)
  64 Ti     1.935043    5.689417   14.981763    ( 0.0000,  0.0000,  0.0000)
  65 Ti     7.241657    3.813530   14.833947    ( 0.0000,  0.0000,  0.0000)
  66 O      2.349272    3.792680   14.804236    ( 0.0000,  0.0000,  0.0000)
  67 O      7.519147    5.753776   14.772452    ( 0.0000,  0.0000,  0.0000)
  68 O      0.182019    5.745461   15.500549    ( 0.0000,  0.0000,  0.0000)
  69 O      5.181033    3.799904   15.626484    ( 0.0000,  0.0000,  0.0000)
  70 O      8.996878    3.814874   14.114519    ( 0.0000,  0.0000,  0.0000)
  71 O      3.842512    5.718145   13.937677    ( 0.0000,  0.0000,  0.0000)
  72 O      8.476572    9.555862    6.000000    ( 0.0000,  0.0000,  0.0000)
  73 O      3.305699    7.644690    6.000000    ( 0.0000,  0.0000,  0.0000)
  74 Ti     1.412752    7.644690    6.752957    ( 0.0000,  0.0000,  0.0000)
  75 Ti     6.583625    9.555862    6.752957    ( 0.0000,  0.0000,  0.0000)
  76 Ti     9.522250    9.555862    7.640878    ( 0.0000,  0.0000,  0.0000)
  77 Ti     4.351376    7.644690    7.640878    ( 0.0000,  0.0000,  0.0000)
  78 O      9.861551    7.644690    7.505914    ( 0.0000,  0.0000,  0.0000)
  79 O      4.690678    9.555862    7.505914    ( 0.0000,  0.0000,  0.0000)
  80 O      7.629303    9.555862    8.393834    ( 0.0000,  0.0000,  0.0000)
  81 O      2.458430    7.644690    8.393834    ( 0.0000,  0.0000,  0.0000)
  82 O      6.244323    7.644690    6.887921    ( 0.0000,  0.0000,  0.0000)
  83 O      1.073450    9.555862    6.887921    ( 0.0000,  0.0000,  0.0000)
  84 O      9.804451    9.571009    9.580157    ( 0.0000,  0.0000,  0.0000)
  85 O      4.644865    7.643767    9.602037    ( 0.0000,  0.0000,  0.0000)
  86 Ti     2.736014    7.645121   10.329064    ( 0.0000,  0.0000,  0.0000)
  87 Ti     7.920166    9.578263   10.389239    ( 0.0000,  0.0000,  0.0000)
  88 Ti     0.493860    9.556062   11.113437    ( 0.0000,  0.0000,  0.0000)
  89 Ti     5.715100    7.622047   11.145420    ( 0.0000,  0.0000,  0.0000)
  90 O      0.911156    7.654398   11.089785    ( 0.0000,  0.0000,  0.0000)
  91 O      6.080924    9.554754   11.085683    ( 0.0000,  0.0000,  0.0000)
  92 O      9.027400    9.530723   11.941197    ( 0.0000,  0.0000,  0.0000)
  93 O      3.850340    7.644417   11.947992    ( 0.0000,  0.0000,  0.0000)
  94 O      7.545657    7.630820   10.454760    ( 0.0000,  0.0000,  0.0000)
  95 O      2.381021    9.555076   10.445284    ( 0.0000,  0.0000,  0.0000)
  96 O      0.910256    9.676104   13.064337    ( 0.0000,  0.0000,  0.0000)
  97 O      6.074603    7.677335   13.195324    ( 0.0000,  0.0000,  0.0000)
  98 Ti     4.104292    7.559523   13.814667    ( 0.0000,  0.0000,  0.0000)
  99 Ti     9.377503    9.546532   13.991624    ( 0.0000,  0.0000,  0.0000)
 100 Ti     1.845440    9.584276   14.571738    ( 0.0000,  0.0000,  0.0000)
 101 Ti     7.080003    7.604041   14.712421    ( 0.0000,  0.0000,  0.0000)
 102 O      2.347962    7.702818   14.594533    ( 0.0000,  0.0000,  0.0000)
 103 O      7.562714    9.563601   14.810678    ( 0.0000,  0.0000,  0.0000)
 104 O      0.212173    9.462095   15.440795    ( 0.0000,  0.0000,  0.0000)
 105 O      5.303206    7.466883   15.615311    ( 0.0000,  0.0000,  0.0000)
 106 O      8.964563    7.631415   13.954569    ( 0.0000,  0.0000,  0.0000)
 107 O      3.859531    9.576902   13.967146    ( 0.0000,  0.0000,  0.0000)
 108 V      5.831733    3.947863   17.276150    ( 0.0000,  0.0000,  0.0000)
 109 V      4.373789    6.796702   17.062965    ( 0.0000,  0.0000,  0.0000)
 110 O      8.142826    7.643400   16.748063    ( 0.0000,  0.0000,  0.0000)
 111 O      5.394805    2.776134   18.275315    ( 0.0000,  0.0000,  0.0000)
 112 O      4.061180    8.011389   18.052106    ( 0.0000,  0.0000,  0.0000)
 113 O      2.869397    5.986111   16.572591    ( 0.0000,  0.0000,  0.0000)
 114 O      7.500997    3.825264   16.736997    ( 0.0000,  0.0000,  0.0000)
 115 O      5.411490    5.611500   17.875350    ( 0.0000,  0.0000,  0.0000)
 116 H      8.922631    8.255215   16.719271    ( 0.0000,  0.0000,  0.0000)
 117 H      8.537590    6.760310   16.953414    ( 0.0000,  0.0000,  0.0000)

Unit cell:
           periodic     x           y           z      points  spacing
  1. axis:    yes   10.341746    0.000000    0.000000    54     0.1915
  2. axis:    yes   -0.000000   11.467000    0.000000    60     0.1911
  3. axis:    no     0.000000    0.000000   23.497201   125     0.1880

  Lengths:  10.341746  11.467000  23.497201
  Angles:   90.000000  90.000000  90.000000

Effective grid spacing dv^(1/3) = 0.1902

                     log10-error:    total        iterations:
           time      wfs    density  energy       fermi  poisson
iter:   1  10:28:38  -0.12   +inf  -1107.753107    1             
iter:   2  10:29:49  -1.03  -0.96  -1060.489219    2             
iter:   3  10:31:00  +0.44  -1.00  -965.912255    5             
iter:   4  10:32:11  -0.97  -1.35  -978.462343    4             
iter:   5  10:33:22  -1.14  -1.28  -995.288024    3             
iter:   6  10:34:32  -0.11  -1.25  -987.237589    5             
iter:   7  10:35:43  -0.70  -1.64  -984.942540    4             
iter:   8  10:36:54  -1.96  -1.63  -979.190715    3             
iter:   9  10:38:05  -0.92  -1.71  -970.606548    4             
iter:  10  10:39:16  -1.70  -2.11  -971.223729    3             
iter:  11  10:40:27  -2.60  -2.18  -971.573424    2             
iter:  12  10:41:38  -1.69  -2.22  -971.130107    2             
iter:  13  10:42:48  -2.11  -2.33  -971.078606    3             
iter:  14  10:43:59  -2.69  -2.43  -970.977484    3             
iter:  15  10:45:10  -2.56  -2.53  -970.844321    2             
iter:  16  10:46:21  -3.06  -2.69  -970.838319    3             
iter:  17  10:47:32  -3.89  -2.70  -970.825577    2             
iter:  18  10:48:43  -4.07  -2.74  -970.826883    2             
iter:  19  10:49:53  -3.85  -2.84  -970.833201    2             
iter:  20  10:51:04  -3.87  -3.09  -970.838845    2             
iter:  21  10:52:15  -4.94  -3.20  -970.833029    2             
iter:  22  10:53:26  -4.39  -3.21  -970.830538    2             
iter:  23  10:54:37  -4.70  -3.30  -970.831179    2             
iter:  24  10:55:47  -4.83  -3.48  -970.830436    2             
iter:  25  10:56:58  -5.30  -3.52  -970.830302    2             
iter:  26  10:58:09  -5.20  -3.65  -970.830054    2             
iter:  27  10:59:20  -5.05  -3.90  -970.829935    2             
iter:  28  11:00:31  -5.80  -4.05  -970.829925    2             
iter:  29  11:01:42  -5.55  -4.09  -970.829954    2             
iter:  30  11:02:52  -5.75  -4.13  -970.829866    2             
iter:  31  11:04:03  -6.52  -4.42  -970.829872    2             
iter:  32  11:05:14  -7.21  -4.57  -970.829868    1             
iter:  33  11:06:25  -6.57  -4.59  -970.829861    1             
iter:  34  11:07:36  -7.31  -4.66  -970.829861    1             
iter:  35  11:08:46  -7.59  -4.80  -970.829861    1             

Converged after 35 iterations.

Dipole moment: (-17.194073, 4.684827, -1.251188) |e|*Ang

Energy contributions relative to reference atoms: (reference = -1046916.965077)

Kinetic:       +696.007064
Potential:     -888.209757
External:        +0.000000
XC:            -786.390402
Entropy (-ST):   -0.000510
Local:           +7.763490
--------------------------
Free energy:   -970.830117
Extrapolated:  -970.829861

Fermi level: -0.66759

Showing only first 2 kpts
 Kpt  Band  Eigenvalues  Occupancy
  0   462     -1.73232    0.22222
  0   463     -1.72953    0.22222
  0   464      0.18272    0.00005
  0   465      0.32764    0.00001

  1   462     -1.74908    0.44444
  1   463     -1.71808    0.44443
  1   464      0.37180    0.00001
  1   465      0.46815    0.00001



Forces in eV/Ang:
  0 O    -1.89049    0.00811    1.55353
  1 O    -1.91951   -0.00129    1.53888
  2 Ti    3.84798    0.02010    1.95580
  3 Ti    3.85480   -0.02733    1.96881
  4 Ti   -1.97830   -0.02825   -2.01806
  5 Ti   -1.88942    0.00877   -2.01998
  6 O     0.90025    0.01455   -0.19292
  7 O     0.84401    0.08110   -0.17832
  8 O    -0.68289    0.00992   -0.57879
  9 O    -0.66823    0.00812   -0.62561
 10 O    -0.27869   -0.01280   -0.86802
 11 O    -0.23115    0.09128   -0.86433
 12 O    -0.14532   -0.00071    0.03141
 13 O    -0.18339    0.00491    0.02135
 14 Ti    0.05330   -0.03079   -0.09092
 15 Ti    0.03319    0.00065   -0.09843
 16 Ti    0.08858   -0.01980    0.09447
 17 Ti    0.07866   -0.01636    0.07657
 18 O     0.10584   -0.03851   -0.10418
 19 O     0.13378    0.00950   -0.04031
 20 O     0.00978    0.02011    0.11329
 21 O     0.00854    0.00706    0.08299
 22 O    -0.00108    0.02197    0.09568
 23 O     0.01496    0.01656    0.05080
 24 O    -0.08557   -0.01415    0.03598
 25 O    -0.05768   -0.02119    0.02282
 26 Ti   -0.00543    0.11085   -0.20352
 27 Ti   -0.00247    0.11194   -0.16235
 28 Ti    0.17774   -0.04236   -0.00009
 29 Ti    0.18965   -0.00904   -0.00293
 30 O     0.03166    0.00830    0.15485
 31 O     0.05898    0.06006   -0.01861
 32 O     0.01300   -0.03993    0.10576
 33 O     0.02302   -0.02065    0.12994
 34 O    -0.20725    0.01914    0.15534
 35 O    -0.23789   -0.09225    0.16931
 36 O    -1.91521    0.00501    1.52922
 37 O    -1.90376    0.00978    1.59908
 38 Ti    3.64029   -0.06067    1.78158
 39 Ti    3.87757   -0.01911    1.92056
 40 Ti   -1.84495   -0.01227   -1.61275
 41 Ti   -1.58975   -0.04678   -1.71880
 42 O     0.95262    0.02950   -0.21800
 43 O     0.82041    0.01713   -0.17819
 44 O    -0.78080   -0.01676   -0.74582
 45 O    -0.64806    0.02160   -0.61390
 46 O    -0.32710    0.03412   -0.84729
 47 O    -0.20317    0.02869   -0.91037
 48 O     0.02135   -0.00307    0.10718
 49 O    -0.11960    0.00498    0.01616
 50 Ti   -0.00802    0.00527    0.01388
 51 Ti   -0.12388   -0.00525   -0.02866
 52 Ti    0.02714    0.03759   -0.08295
 53 Ti    0.01624   -0.05288    0.10275
 54 O     0.18410   -0.01502   -0.10175
 55 O     0.19824   -0.00454    0.00096
 56 O     0.01371   -0.01704    0.14741
 57 O     0.00097   -0.01078    0.07915
 58 O    -0.01153   -0.00000    0.09355
 59 O     0.00725   -0.00937    0.14309
 60 O     0.11478    0.00250    0.11281
 61 O     0.04068   -0.02039   -0.10447
 62 Ti   -0.07325    0.10266    0.09334
 63 Ti   -0.16060   -0.07444   -0.07313
 64 Ti    0.11042    0.08247   -0.16478
 65 Ti   -0.14259   -0.04145   -0.00944
 66 O     0.03261   -0.03332    0.04181
 67 O     0.04930   -0.08389   -0.08786
 68 O    -0.07075    0.07110    0.27743
 69 O     0.18012   -0.02806   -0.10513
 70 O    -0.03329   -0.05439   -0.19646
 71 O    -0.24904   -0.08560    0.06561
 72 O    -1.89999   -0.00221    1.55359
 73 O    -1.93535   -0.00556    1.61074
 74 Ti    3.57000    0.04276    1.70621
 75 Ti    3.84481    0.04409    1.94463
 76 Ti   -1.96076    0.03718   -2.04265
 77 Ti   -1.53587    0.03175   -1.86312
 78 O     0.96558    0.01815   -0.21839
 79 O     0.84460   -0.08325   -0.17557
 80 O    -0.66642   -0.03010   -0.57219
 81 O    -0.64808   -0.00678   -0.59427
 82 O    -0.33411   -0.02178   -0.87919
 83 O    -0.22709   -0.11906   -0.85231
 84 O    -0.16691   -0.00487   -0.00678
 85 O    -0.17151   -0.00575    0.00602
 86 Ti    0.07909   -0.00308    0.00503
 87 Ti    0.04774   -0.04770   -0.10728
 88 Ti    0.05870    0.02761    0.08888
 89 Ti   -0.04770    0.05952    0.14745
 90 O     0.12571   -0.05517   -0.05442
 91 O     0.13834    0.00083   -0.06453
 92 O     0.01778   -0.01242    0.08930
 93 O     0.02355    0.01225   -0.07397
 94 O     0.04428    0.03047    0.11221
 95 O     0.01074    0.02436    0.04705
 96 O    -0.01515   -0.05561   -0.03087
 97 O    -0.11128    0.00933   -0.31236
 98 Ti    0.18432    0.09034    0.06958
 99 Ti    0.00047   -0.01086   -0.19176
100 Ti    0.18116    0.00285   -0.01137
101 Ti    0.06041    0.09886    0.07118
102 O    -0.07464   -0.13361    0.27214
103 O     0.01879   -0.05052    0.13420
104 O    -0.00961   -0.00139    0.08876
105 O    -0.09825    0.08120   -0.20963
106 O    -0.16671    0.03712    0.07794
107 O    -0.19814   -0.11034    0.21936
108 V    -0.02006   -0.14848    0.09477
109 V    -0.06404    0.15164    0.13042
110 O     0.44626   -0.12103    0.04569
111 O     0.03287    0.19839   -0.19209
112 O    -0.04210   -0.24698   -0.16052
113 O     0.22420    0.14652    0.19318
114 O    -0.18010    0.02321    0.01485
115 O    -0.01257   -0.02819    0.18406
116 H    -0.33892   -0.21966    0.00868
117 H    -0.17377    0.35054   -0.08872

System changes: positions 

Initializing position-dependent things.

Density initialized from wave functions
                                                
                                                
                                                
                                                
                                                
                                                
                      O                         
                                                
                      V O       HiH             
             O    O   O         O    O          
                  Ti   OVO   O      Ti          
           O   O  O         OTi                 
               Ti     Oi   O O    O             
         O     O    O      Ti     Ti            
             Tii    Ti     OO   O               
             OO   OOO   O Ti   TiOi             
          O Ti   TiOi     O    O     O          
                O      Ti     TiO               
            O   TiO      O  O  O   O Ti         
         Ti     O    O Oi    Ti     O           
         O    OTi    Ti    OTiO   O             
             OTi    O O   O     O Ti            
                  O Ti     Oi     O             
             Oi     O    O      Ti              
           O      Ti    Ti     O                
          Ti          O      O                  
               O                                
                                                
                                                
                                                
                                                

Positions:
   0 O      8.476572    1.911173    6.000000    ( 0.0000,  0.0000,  0.0000)
   1 O      3.305699    0.000000    6.000000    ( 0.0000,  0.0000,  0.0000)
   2 Ti     1.412752    0.000000    6.752957    ( 0.0000,  0.0000,  0.0000)
   3 Ti     6.583625    1.911173    6.752957    ( 0.0000,  0.0000,  0.0000)
   4 Ti     9.522250    1.911173    7.640878    ( 0.0000,  0.0000,  0.0000)
   5 Ti     4.351376    0.000000    7.640878    ( 0.0000,  0.0000,  0.0000)
   6 O      9.861551    0.000000    7.505914    ( 0.0000,  0.0000,  0.0000)
   7 O      4.690678    1.911173    7.505914    ( 0.0000,  0.0000,  0.0000)
   8 O      7.629303    1.911173    8.393834    ( 0.0000,  0.0000,  0.0000)
   9 O      2.458430    0.000000    8.393834    ( 0.0000,  0.0000,  0.0000)
  10 O      6.244323    0.000000    6.887921    ( 0.0000,  0.0000,  0.0000)
  11 O      1.073450    1.911173    6.887921    ( 0.0000,  0.0000,  0.0000)
  12 O      9.795856    1.928097    9.583589    ( 0.0000,  0.0000,  0.0000)
  13 O      4.637093    0.005220    9.579570    ( 0.0000,  0.0000,  0.0000)
  14 Ti     2.751472    0.018824   10.386734    ( 0.0000,  0.0000,  0.0000)
  15 Ti     7.924537    1.916608   10.390952    ( 0.0000,  0.0000,  0.0000)
  16 Ti     0.484231    1.931250   11.127263    ( 0.0000,  0.0000,  0.0000)
  17 Ti     5.646159    0.008306   11.133529    ( 0.0000,  0.0000,  0.0000)
  18 O      0.908328    0.017945   11.065287    ( 0.0000,  0.0000,  0.0000)
  19 O      6.082203    1.917514   11.094299    ( 0.0000,  0.0000,  0.0000)
  20 O      9.030389    1.924481   11.957061    ( 0.0000,  0.0000,  0.0000)
  21 O      3.855712    0.005598   11.942903    ( 0.0000,  0.0000,  0.0000)
  22 O      7.556716    0.003638   10.451087    ( 0.0000,  0.0000,  0.0000)
  23 O      2.386226    1.927725   10.446381    ( 0.0000,  0.0000,  0.0000)
  24 O      0.929244    1.920021   13.077690    ( 0.0000,  0.0000,  0.0000)
  25 O      6.097884   11.449376   13.075629    ( 0.0000,  0.0000,  0.0000)
  26 Ti     4.213829   -0.049607   14.027565    ( 0.0000,  0.0000,  0.0000)
  27 Ti     9.397724    1.829919   14.025272    ( 0.0000,  0.0000,  0.0000)
  28 Ti     1.856296    1.919705   14.600770    ( 0.0000,  0.0000,  0.0000)
  29 Ti     7.007897   11.445452   14.603346    ( 0.0000,  0.0000,  0.0000)
  30 O      2.384779    0.004166   14.819385    ( 0.0000,  0.0000,  0.0000)
  31 O      7.564003    1.836604   14.786715    ( 0.0000,  0.0000,  0.0000)
  32 O      0.225624    1.847021   15.453515    ( 0.0000,  0.0000,  0.0000)
  33 O      5.398575   -0.003917   15.460131    ( 0.0000,  0.0000,  0.0000)
  34 O      9.040606   11.436705   13.951073    ( 0.0000,  0.0000,  0.0000)
  35 O      3.830900    1.910793   13.955321    ( 0.0000,  0.0000,  0.0000)
  36 O      8.476572    5.733518    6.000000    ( 0.0000,  0.0000,  0.0000)
  37 O      3.305699    3.822345    6.000000    ( 0.0000,  0.0000,  0.0000)
  38 Ti     1.412752    3.822345    6.752957    ( 0.0000,  0.0000,  0.0000)
  39 Ti     6.583625    5.733518    6.752957    ( 0.0000,  0.0000,  0.0000)
  40 Ti     9.522250    5.733518    7.640878    ( 0.0000,  0.0000,  0.0000)
  41 Ti     4.351376    3.822345    7.640878    ( 0.0000,  0.0000,  0.0000)
  42 O      9.861551    3.822345    7.505914    ( 0.0000,  0.0000,  0.0000)
  43 O      4.690678    5.733518    7.505914    ( 0.0000,  0.0000,  0.0000)
  44 O      7.629303    5.733518    8.393834    ( 0.0000,  0.0000,  0.0000)
  45 O      2.458430    3.822345    8.393834    ( 0.0000,  0.0000,  0.0000)
  46 O      6.244323    3.822345    6.887921    ( 0.0000,  0.0000,  0.0000)
  47 O      1.073450    5.733518    6.887921    ( 0.0000,  0.0000,  0.0000)
  48 O      9.794073    5.747520    9.603562    ( 0.0000,  0.0000,  0.0000)
  49 O      4.640176    3.829629    9.615558    ( 0.0000,  0.0000,  0.0000)
  50 Ti     2.783771    3.829701   10.332596    ( 0.0000,  0.0000,  0.0000)
  51 Ti     8.009881    5.727773   10.351425    ( 0.0000,  0.0000,  0.0000)
  52 Ti     0.533463    5.715354   11.275259    ( 0.0000,  0.0000,  0.0000)
  53 Ti     5.702086    3.850625   11.222448    ( 0.0000,  0.0000,  0.0000)
  54 O      0.907707    3.828819   11.080408    ( 0.0000,  0.0000,  0.0000)
  55 O      6.062495    5.732174   11.115772    ( 0.0000,  0.0000,  0.0000)
  56 O      9.026001    5.696614   11.969156    ( 0.0000,  0.0000,  0.0000)
  57 O      3.848560    3.819866   11.963407    ( 0.0000,  0.0000,  0.0000)
  58 O      7.543359    3.831838   10.458431    ( 0.0000,  0.0000,  0.0000)
  59 O      2.385231    5.737182   10.455033    ( 0.0000,  0.0000,  0.0000)
  60 O      0.904593    5.728022   13.146267    ( 0.0000,  0.0000,  0.0000)
  61 O      6.045739    3.798681   13.239925    ( 0.0000,  0.0000,  0.0000)
  62 Ti     4.210351    3.763696   13.872885    ( 0.0000,  0.0000,  0.0000)
  63 Ti     9.470553    5.753489   13.971860    ( 0.0000,  0.0000,  0.0000)
  64 Ti     1.936620    5.690595   14.979409    ( 0.0000,  0.0000,  0.0000)
  65 Ti     7.239620    3.812938   14.833812    ( 0.0000,  0.0000,  0.0000)
  66 O      2.349738    3.792204   14.804834    ( 0.0000,  0.0000,  0.0000)
  67 O      7.519852    5.752578   14.771197    ( 0.0000,  0.0000,  0.0000)
  68 O      0.181009    5.746476   15.504512    ( 0.0000,  0.0000,  0.0000)
  69 O      5.183606    3.799503   15.624982    ( 0.0000,  0.0000,  0.0000)
  70 O      8.996403    3.814097   14.111713    ( 0.0000,  0.0000,  0.0000)
  71 O      3.838954    5.716922   13.938614    ( 0.0000,  0.0000,  0.0000)
  72 O      8.476572    9.555862    6.000000    ( 0.0000,  0.0000,  0.0000)
  73 O      3.305699    7.644690    6.000000    ( 0.0000,  0.0000,  0.0000)
  74 Ti     1.412752    7.644690    6.752957    ( 0.0000,  0.0000,  0.0000)
  75 Ti     6.583625    9.555862    6.752957    ( 0.0000,  0.0000,  0.0000)
  76 Ti     9.522250    9.555862    7.640878    ( 0.0000,  0.0000,  0.0000)
  77 Ti     4.351376    7.644690    7.640878    ( 0.0000,  0.0000,  0.0000)
  78 O      9.861551    7.644690    7.505914    ( 0.0000,  0.0000,  0.0000)
  79 O      4.690678    9.555862    7.505914    ( 0.0000,  0.0000,  0.0000)
  80 O      7.629303    9.555862    8.393834    ( 0.0000,  0.0000,  0.0000)
  81 O      2.458430    7.644690    8.393834    ( 0.0000,  0.0000,  0.0000)
  82 O      6.244323    7.644690    6.887921    ( 0.0000,  0.0000,  0.0000)
  83 O      1.073450    9.555862    6.887921    ( 0.0000,  0.0000,  0.0000)
  84 O      9.802067    9.570939    9.580060    ( 0.0000,  0.0000,  0.0000)
  85 O      4.642415    7.643685    9.602123    ( 0.0000,  0.0000,  0.0000)
  86 Ti     2.737144    7.645077   10.329136    ( 0.0000,  0.0000,  0.0000)
  87 Ti     7.920848    9.577582   10.387706    ( 0.0000,  0.0000,  0.0000)
  88 Ti     0.494699    9.556457   11.114706    ( 0.0000,  0.0000,  0.0000)
  89 Ti     5.714418    7.622898   11.147526    ( 0.0000,  0.0000,  0.0000)
  90 O      0.912951    7.653610   11.089008    ( 0.0000,  0.0000,  0.0000)
  91 O      6.082900    9.554766   11.084761    ( 0.0000,  0.0000,  0.0000)
  92 O      9.027654    9.530546   11.942473    ( 0.0000,  0.0000,  0.0000)
  93 O      3.850676    7.644592   11.946935    ( 0.0000,  0.0000,  0.0000)
  94 O      7.546289    7.631255   10.456363    ( 0.0000,  0.0000,  0.0000)
  95 O      2.381174    9.555424   10.445956    ( 0.0000,  0.0000,  0.0000)
  96 O      0.910039    9.675310   13.063896    ( 0.0000,  0.0000,  0.0000)
  97 O      6.073013    7.677468   13.190862    ( 0.0000,  0.0000,  0.0000)
  98 Ti     4.106925    7.560814   13.815661    ( 0.0000,  0.0000,  0.0000)
  99 Ti     9.377510    9.546377   13.988885    ( 0.0000,  0.0000,  0.0000)
 100 Ti     1.848028    9.584317   14.571575    ( 0.0000,  0.0000,  0.0000)
 101 Ti     7.080866    7.605453   14.713438    ( 0.0000,  0.0000,  0.0000)
 102 O      2.346896    7.700909   14.598420    ( 0.0000,  0.0000,  0.0000)
 103 O      7.562983    9.562879   14.812595    ( 0.0000,  0.0000,  0.0000)
 104 O      0.212035    9.462075   15.442062    ( 0.0000,  0.0000,  0.0000)
 105 O      5.301803    7.468043   15.612316    ( 0.0000,  0.0000,  0.0000)
 106 O      8.962181    7.631946   13.955683    ( 0.0000,  0.0000,  0.0000)
 107 O      3.856700    9.575325   13.970279    ( 0.0000,  0.0000,  0.0000)
 108 V      5.831446    3.945742   17.277504    ( 0.0000,  0.0000,  0.0000)
 109 V      4.372875    6.798868   17.064828    ( 0.0000,  0.0000,  0.0000)
 110 O      8.149201    7.641671   16.748715    ( 0.0000,  0.0000,  0.0000)
 111 O      5.395274    2.778968   18.272571    ( 0.0000,  0.0000,  0.0000)
 112 O      4.060578    8.007861   18.049813    ( 0.0000,  0.0000,  0.0000)
 113 O      2.872600    5.988204   16.575351    ( 0.0000,  0.0000,  0.0000)
 114 O      7.498425    3.825595   16.737209    ( 0.0000,  0.0000,  0.0000)
 115 O      5.411310    5.611097   17.877979    ( 0.0000,  0.0000,  0.0000)
 116 H      8.917789    8.252077   16.719395    ( 0.0000,  0.0000,  0.0000)
 117 H      8.535108    6.765318   16.952146    ( 0.0000,  0.0000,  0.0000)

Unit cell:
           periodic     x           y           z      points  spacing
  1. axis:    yes   10.341746    0.000000    0.000000    54     0.1915
  2. axis:    yes   -0.000000   11.467000    0.000000    60     0.1911
  3. axis:    no     0.000000    0.000000   23.497201   125     0.1880

  Lengths:  10.341746  11.467000  23.497201
  Angles:   90.000000  90.000000  90.000000

Effective grid spacing dv^(1/3) = 0.1902

                     log10-error:    total        iterations:
           time      wfs    density  energy       fermi  poisson
iter:   1  11:10:25  -3.34   +inf  -970.874490    3             
iter:   2  11:11:36  -4.26  -3.37  -970.872144    2             
iter:   3  11:12:47  -3.67  -3.39  -970.864288    3             
iter:   4  11:13:58  -4.94  -3.58  -970.863765    2             
iter:   5  11:15:09  -4.92  -3.66  -970.863348    2             
iter:   6  11:16:19  -4.68  -3.79  -970.862826    2             
iter:   7  11:17:30  -5.56  -3.88  -970.862410    2             
iter:   8  11:18:41  -5.63  -4.09  -970.862330    1             
iter:   9  11:19:52  -6.16  -4.29  -970.862328    2             
iter:  10  11:21:03  -6.47  -4.36  -970.862308    2             
iter:  11  11:22:13  -7.41  -4.64  -970.862307    1             

Converged after 11 iterations.

Dipole moment: (-17.229352, 4.668632, -1.255736) |e|*Ang

Energy contributions relative to reference atoms: (reference = -1046916.965077)

Kinetic:       +695.807901
Potential:     -887.940686
External:        +0.000000
XC:            -786.510885
Entropy (-ST):   -0.000508
Local:           +7.781616
--------------------------
Free energy:   -970.862561
Extrapolated:  -970.862307

Fermi level: -0.67084

Showing only first 2 kpts
 Kpt  Band  Eigenvalues  Occupancy
  0   462     -1.73660    0.22222
  0   463     -1.73386    0.22222
  0   464      0.18015    0.00004
  0   465      0.32380    0.00001

  1   462     -1.75262    0.44444
  1   463     -1.72259    0.44443
  1   464      0.36966    0.00001
  1   465      0.46439    0.00001



Forces in eV/Ang:
  0 O    -1.89270    0.00811    1.55752
  1 O    -1.92096   -0.00132    1.54338
  2 Ti    3.84638    0.01984    1.95562
  3 Ti    3.85235   -0.02689    1.96814
  4 Ti   -1.97199   -0.02860   -2.01073
  5 Ti   -1.88724    0.00900   -2.01849
  6 O     0.90174    0.01524   -0.19533
  7 O     0.84740    0.07875   -0.18119
  8 O    -0.69116    0.00985   -0.58880
  9 O    -0.67643    0.00833   -0.63639
 10 O    -0.27897   -0.01281   -0.86737
 11 O    -0.23350    0.08885   -0.86448
 12 O    -0.11850   -0.00122    0.04622
 13 O    -0.15024    0.00414    0.04419
 14 Ti    0.05661   -0.02367   -0.08359
 15 Ti    0.05064    0.00377   -0.07459
 16 Ti    0.07019   -0.01052    0.08590
 17 Ti    0.07167   -0.01095    0.05834
 18 O     0.08482   -0.03197   -0.09461
 19 O     0.10593   -0.00127   -0.03468
 20 O     0.01354    0.01477    0.07813
 21 O     0.01523    0.00343    0.07778
 22 O    -0.00121    0.01483    0.09369
 23 O     0.01612   -0.00240    0.05199
 24 O    -0.06633   -0.01682    0.02623
 25 O    -0.05130   -0.02181    0.02553
 26 Ti    0.03659    0.09957   -0.12249
 27 Ti    0.04176    0.11446   -0.09443
 28 Ti    0.07350   -0.04138    0.02846
 29 Ti    0.11208    0.00278    0.01823
 30 O     0.04165   -0.01028    0.13634
 31 O     0.03878    0.05521   -0.01637
 32 O     0.02954   -0.03499    0.03065
 33 O     0.03764   -0.01925    0.03822
 34 O    -0.20024    0.00059    0.14029
 35 O    -0.19872   -0.07904    0.14910
 36 O    -1.91385    0.00490    1.53627
 37 O    -1.90539    0.00959    1.60148
 38 Ti    3.64594   -0.05952    1.78674
 39 Ti    3.86997   -0.01914    1.91919
 40 Ti   -1.83883   -0.01174   -1.60360
 41 Ti   -1.59438   -0.04578   -1.70753
 42 O     0.95127    0.03199   -0.21860
 43 O     0.82556    0.01692   -0.18212
 44 O    -0.77436   -0.01622   -0.74099
 45 O    -0.65376    0.02257   -0.62496
 46 O    -0.32512    0.03498   -0.84888
 47 O    -0.20759    0.02839   -0.91052
 48 O     0.01142   -0.00441    0.08522
 49 O    -0.09668    0.00572    0.02288
 50 Ti    0.00162    0.00759    0.01465
 51 Ti   -0.10029   -0.00314    0.00250
 52 Ti    0.02040    0.03368   -0.03515
 53 Ti    0.00897   -0.04423    0.09716
 54 O     0.15546   -0.02116   -0.08662
 55 O     0.17936    0.00086   -0.00451
 56 O     0.01719   -0.01292    0.11039
 57 O     0.00987   -0.01634    0.08365
 58 O    -0.00468   -0.00133    0.08573
 59 O     0.01913   -0.00427    0.13403
 60 O     0.08678    0.00049    0.09104
 61 O     0.01826   -0.02133   -0.10170
 62 Ti   -0.06624    0.10338    0.09212
 63 Ti   -0.07845   -0.08340   -0.00360
 64 Ti    0.00711    0.08992   -0.08809
 65 Ti   -0.12544   -0.04545   -0.00014
 66 O     0.04310   -0.02985    0.04367
 67 O     0.03002   -0.04861   -0.08405
 68 O    -0.02575    0.06113    0.17780
 69 O     0.16057   -0.03186   -0.12304
 70 O    -0.04617   -0.04494   -0.17178
 71 O    -0.22102   -0.06274    0.05163
 72 O    -1.90355   -0.00219    1.55692
 73 O    -1.93718   -0.00538    1.61266
 74 Ti    3.57654    0.04184    1.71194
 75 Ti    3.84260    0.04360    1.94311
 76 Ti   -1.95387    0.03731   -2.04025
 77 Ti   -1.54102    0.03063   -1.85517
 78 O     0.96410    0.01483   -0.21930
 79 O     0.84794   -0.08056   -0.17806
 80 O    -0.67665   -0.02919   -0.58183
 81 O    -0.65655   -0.00724   -0.61059
 82 O    -0.33214   -0.02251   -0.88120
 83 O    -0.22927   -0.11630   -0.85164
 84 O    -0.13627   -0.00541    0.01963
 85 O    -0.14250   -0.00565    0.00988
 86 Ti    0.07140   -0.01017   -0.00217
 87 Ti    0.05712   -0.04839   -0.09327
 88 Ti    0.04846    0.01461    0.06949
 89 Ti   -0.03325    0.04540    0.12314
 90 O     0.10403   -0.03018   -0.04733
 91 O     0.11101    0.00845   -0.06088
 92 O     0.02078   -0.00945    0.06684
 93 O     0.02404    0.01210   -0.03347
 94 O     0.04231    0.02711    0.10761
 95 O     0.01007    0.02118    0.04751
 96 O    -0.00314   -0.05322   -0.02379
 97 O    -0.07518    0.00823   -0.22178
 98 Ti    0.13950    0.07760    0.08096
 99 Ti    0.04837   -0.00328   -0.12503
100 Ti    0.08843   -0.01771    0.01739
101 Ti    0.02829    0.07591    0.03061
102 O    -0.03334   -0.10883    0.24615
103 O     0.00491   -0.05883    0.12416
104 O     0.01390    0.00905    0.00314
105 O    -0.07293    0.07917   -0.21258
106 O    -0.16905    0.03548    0.06831
107 O    -0.18097   -0.10304    0.19826
108 V    -0.00014    0.13984   -0.06824
109 V     0.05929   -0.12816   -0.05020
110 O    -0.11317    0.02430   -0.05787
111 O    -0.04042   -0.01692   -0.01258
112 O    -0.10021    0.00459    0.04129
113 O     0.17329    0.12296    0.14437
114 O    -0.12839    0.00740    0.00679
115 O    -0.02352   -0.04186    0.13871
116 H     0.00147    0.02513    0.00283
117 H     0.02042   -0.03784    0.00583

System changes: positions 

Initializing position-dependent things.

Density initialized from wave functions
                                                
                                                
                                                
                                                
                                                
                                                
                      O                         
                                                
                      V O       HiH             
             O    Oi  O         O    O          
                       OVO   O      Ti          
           O   O  O         OTi                 
               Ti     Oi   O O    O             
         O     O    O      Ti     Ti            
             Tii    Ti     OO   O               
             OO   OOO   O Ti   TiOi             
          O Ti   TiOi     O    O     O          
                O      Ti     TiO               
            O   TiO      O  O  O   O Ti         
         Ti     O    O Oi    Ti     O           
         O    OTi    Ti    OTiO   O             
             OTi    O O   O     O Ti            
                  O Ti     Oi     O             
             Oi     O    O      Ti              
           O      Ti    Ti     O                
          Ti          O      O                  
               O                                
                                                
                                                
                                                
                                                

Positions:
   0 O      8.476572    1.911173    6.000000    ( 0.0000,  0.0000,  0.0000)
   1 O      3.305699    0.000000    6.000000    ( 0.0000,  0.0000,  0.0000)
   2 Ti     1.412752    0.000000    6.752957    ( 0.0000,  0.0000,  0.0000)
   3 Ti     6.583625    1.911173    6.752957    ( 0.0000,  0.0000,  0.0000)
   4 Ti     9.522250    1.911173    7.640878    ( 0.0000,  0.0000,  0.0000)
   5 Ti     4.351376    0.000000    7.640878    ( 0.0000,  0.0000,  0.0000)
   6 O      9.861551    0.000000    7.505914    ( 0.0000,  0.0000,  0.0000)
   7 O      4.690678    1.911173    7.505914    ( 0.0000,  0.0000,  0.0000)
   8 O      7.629303    1.911173    8.393834    ( 0.0000,  0.0000,  0.0000)
   9 O      2.458430    0.000000    8.393834    ( 0.0000,  0.0000,  0.0000)
  10 O      6.244323    0.000000    6.887921    ( 0.0000,  0.0000,  0.0000)
  11 O      1.073450    1.911173    6.887921    ( 0.0000,  0.0000,  0.0000)
  12 O      9.790047    1.928049    9.585475    ( 0.0000,  0.0000,  0.0000)
  13 O      4.629741    0.005421    9.581242    ( 0.0000,  0.0000,  0.0000)
  14 Ti     2.754004    0.017637   10.382811    ( 0.0000,  0.0000,  0.0000)
  15 Ti     7.926584    1.916733   10.387190    ( 0.0000,  0.0000,  0.0000)
  16 Ti     0.487710    1.930631   11.131310    ( 0.0000,  0.0000,  0.0000)
  17 Ti     5.649533    0.007725   11.136465    ( 0.0000,  0.0000,  0.0000)
  18 O      0.912514    0.016389   11.060828    ( 0.0000,  0.0000,  0.0000)
  19 O      6.087454    1.917618   11.092633    ( 0.0000,  0.0000,  0.0000)
  20 O      9.030950    1.925235   11.961155    ( 0.0000,  0.0000,  0.0000)
  21 O      3.856305    0.005809   11.946529    ( 0.0000,  0.0000,  0.0000)
  22 O      7.556663    0.004422   10.455391    ( 0.0000,  0.0000,  0.0000)
  23 O      2.386944    1.927901   10.448735    ( 0.0000,  0.0000,  0.0000)
  24 O      0.925929    1.919294   13.079033    ( 0.0000,  0.0000,  0.0000)
  25 O      6.095448   11.448390   13.076753    ( 0.0000,  0.0000,  0.0000)
  26 Ti     4.214866   -0.044896   14.020758    ( 0.0000,  0.0000,  0.0000)
  27 Ti     9.398963    1.835102   14.019942    ( 0.0000,  0.0000,  0.0000)
  28 Ti     1.861217    1.917802   14.601639    ( 0.0000,  0.0000,  0.0000)
  29 Ti     7.014177   11.445401   14.603859    ( 0.0000,  0.0000,  0.0000)
  30 O      2.386529    0.003977   14.825883    ( 0.0000,  0.0000,  0.0000)
  31 O      7.566076    1.839196   14.785935    ( 0.0000,  0.0000,  0.0000)
  32 O      0.226723    1.845351   15.456044    ( 0.0000,  0.0000,  0.0000)
  33 O      5.400072   -0.004816   15.463255    ( 0.0000,  0.0000,  0.0000)
  34 O      9.031367   11.437011   13.957699    ( 0.0000,  0.0000,  0.0000)
  35 O      3.821246    1.906989   13.962427    ( 0.0000,  0.0000,  0.0000)
  36 O      8.476572    5.733518    6.000000    ( 0.0000,  0.0000,  0.0000)
  37 O      3.305699    3.822345    6.000000    ( 0.0000,  0.0000,  0.0000)
  38 Ti     1.412752    3.822345    6.752957    ( 0.0000,  0.0000,  0.0000)
  39 Ti     6.583625    5.733518    6.752957    ( 0.0000,  0.0000,  0.0000)
  40 Ti     9.522250    5.733518    7.640878    ( 0.0000,  0.0000,  0.0000)
  41 Ti     4.351376    3.822345    7.640878    ( 0.0000,  0.0000,  0.0000)
  42 O      9.861551    3.822345    7.505914    ( 0.0000,  0.0000,  0.0000)
  43 O      4.690678    5.733518    7.505914    ( 0.0000,  0.0000,  0.0000)
  44 O      7.629303    5.733518    8.393834    ( 0.0000,  0.0000,  0.0000)
  45 O      2.458430    3.822345    8.393834    ( 0.0000,  0.0000,  0.0000)
  46 O      6.244323    3.822345    6.887921    ( 0.0000,  0.0000,  0.0000)
  47 O      1.073450    5.733518    6.887921    ( 0.0000,  0.0000,  0.0000)
  48 O      9.794743    5.747339    9.607779    ( 0.0000,  0.0000,  0.0000)
  49 O      4.635421    3.829879    9.616501    ( 0.0000,  0.0000,  0.0000)
  50 Ti     2.783700    3.830012   10.333252    ( 0.0000,  0.0000,  0.0000)
  51 Ti     8.004951    5.727598   10.351070    ( 0.0000,  0.0000,  0.0000)
  52 Ti     0.534495    5.716949   11.272936    ( 0.0000,  0.0000,  0.0000)
  53 Ti     5.702605    3.848477   11.226964    ( 0.0000,  0.0000,  0.0000)
  54 O      0.915230    3.827946   11.076229    ( 0.0000,  0.0000,  0.0000)
  55 O      6.070961    5.732131   11.115649    ( 0.0000,  0.0000,  0.0000)
  56 O      9.026732    5.695962   11.974748    ( 0.0000,  0.0000,  0.0000)
  57 O      3.848877    3.819204   11.967155    ( 0.0000,  0.0000,  0.0000)
  58 O      7.543043    3.831798   10.462459    ( 0.0000,  0.0000,  0.0000)
  59 O      2.385925    5.736911   10.461283    ( 0.0000,  0.0000,  0.0000)
  60 O      0.908972    5.728074   13.150747    ( 0.0000,  0.0000,  0.0000)
  61 O      6.046910    3.797722   13.235245    ( 0.0000,  0.0000,  0.0000)
  62 Ti     4.207224    3.768401   13.877105    ( 0.0000,  0.0000,  0.0000)
  63 Ti     9.465738    5.749819   13.970649    ( 0.0000,  0.0000,  0.0000)
  64 Ti     1.938500    5.694585   14.974237    ( 0.0000,  0.0000,  0.0000)
  65 Ti     7.233640    3.810925   14.833666    ( 0.0000,  0.0000,  0.0000)
  66 O      2.351546    3.790790   14.806798    ( 0.0000,  0.0000,  0.0000)
  67 O      7.521511    5.749830   14.767306    ( 0.0000,  0.0000,  0.0000)
  68 O      0.179157    5.749415   15.514122    ( 0.0000,  0.0000,  0.0000)
  69 O      5.191225    3.798107   15.619639    ( 0.0000,  0.0000,  0.0000)
  70 O      8.994491    3.811904   14.103505    ( 0.0000,  0.0000,  0.0000)
  71 O      3.828451    5.713716   13.941180    ( 0.0000,  0.0000,  0.0000)
  72 O      8.476572    9.555862    6.000000    ( 0.0000,  0.0000,  0.0000)
  73 O      3.305699    7.644690    6.000000    ( 0.0000,  0.0000,  0.0000)
  74 Ti     1.412752    7.644690    6.752957    ( 0.0000,  0.0000,  0.0000)
  75 Ti     6.583625    9.555862    6.752957    ( 0.0000,  0.0000,  0.0000)
  76 Ti     9.522250    9.555862    7.640878    ( 0.0000,  0.0000,  0.0000)
  77 Ti     4.351376    7.644690    7.640878    ( 0.0000,  0.0000,  0.0000)
  78 O      9.861551    7.644690    7.505914    ( 0.0000,  0.0000,  0.0000)
  79 O      4.690678    9.555862    7.505914    ( 0.0000,  0.0000,  0.0000)
  80 O      7.629303    9.555862    8.393834    ( 0.0000,  0.0000,  0.0000)
  81 O      2.458430    7.644690    8.393834    ( 0.0000,  0.0000,  0.0000)
  82 O      6.244323    7.644690    6.887921    ( 0.0000,  0.0000,  0.0000)
  83 O      1.073450    9.555862    6.887921    ( 0.0000,  0.0000,  0.0000)
  84 O      9.795390    9.570700    9.580558    ( 0.0000,  0.0000,  0.0000)
  85 O      4.635478    7.643425    9.602515    ( 0.0000,  0.0000,  0.0000)
  86 Ti     2.740516    7.644720   10.329146    ( 0.0000,  0.0000,  0.0000)
  87 Ti     7.923313    9.575385   10.383241    ( 0.0000,  0.0000,  0.0000)
  88 Ti     0.497064    9.557319   11.118168    ( 0.0000,  0.0000,  0.0000)
  89 Ti     5.712684    7.625181   11.153509    ( 0.0000,  0.0000,  0.0000)
  90 O      0.918023    7.651857   11.086742    ( 0.0000,  0.0000,  0.0000)
  91 O      6.088375    9.555037   11.081929    ( 0.0000,  0.0000,  0.0000)
  92 O      9.028557    9.530070   11.945860    ( 0.0000,  0.0000,  0.0000)
  93 O      3.851766    7.645147   11.944799    ( 0.0000,  0.0000,  0.0000)
  94 O      7.548249    7.632542   10.461341    ( 0.0000,  0.0000,  0.0000)
  95 O      2.381644    9.556438   10.448117    ( 0.0000,  0.0000,  0.0000)
  96 O      0.909715    9.672846   13.062704    ( 0.0000,  0.0000,  0.0000)
  97 O      6.069041    7.677860   13.179382    ( 0.0000,  0.0000,  0.0000)
  98 Ti     4.113962    7.564545   13.819182    ( 0.0000,  0.0000,  0.0000)
  99 Ti     9.378995    9.546113   13.982178    ( 0.0000,  0.0000,  0.0000)
 100 Ti     1.853457    9.583819   14.571936    ( 0.0000,  0.0000,  0.0000)
 101 Ti     7.082640    7.609261   14.715445    ( 0.0000,  0.0000,  0.0000)
 102 O      2.344754    7.695572   14.610040    ( 0.0000,  0.0000,  0.0000)
 103 O      7.563416    9.560321   14.818409    ( 0.0000,  0.0000,  0.0000)
 104 O      0.212316    9.462331   15.443494    ( 0.0000,  0.0000,  0.0000)
 105 O      5.298095    7.471685   15.602664    ( 0.0000,  0.0000,  0.0000)
 106 O      8.954505    7.633589   13.958943    ( 0.0000,  0.0000,  0.0000)
 107 O      3.848187    9.570515   13.979640    ( 0.0000,  0.0000,  0.0000)
 108 V      5.831140    3.947782   17.276845    ( 0.0000,  0.0000,  0.0000)
 109 V      4.373723    6.797233   17.065257    ( 0.0000,  0.0000,  0.0000)
 110 O      8.152459    7.640592   16.747634    ( 0.0000,  0.0000,  0.0000)
 111 O      5.394534    2.781437   18.269295    ( 0.0000,  0.0000,  0.0000)
 112 O      4.056882    8.004284   18.048659    ( 0.0000,  0.0000,  0.0000)
 113 O      2.881270    5.994167   16.582671    ( 0.0000,  0.0000,  0.0000)
 114 O      7.491790    3.826171   16.737640    ( 0.0000,  0.0000,  0.0000)
 115 O      5.410403    5.609394   17.884989    ( 0.0000,  0.0000,  0.0000)
 116 H      8.912733    8.249539   16.719612    ( 0.0000,  0.0000,  0.0000)
 117 H      8.533117    6.769437   16.950989    ( 0.0000,  0.0000,  0.0000)

Unit cell:
           periodic     x           y           z      points  spacing
  1. axis:    yes   10.341746    0.000000    0.000000    54     0.1915
  2. axis:    yes   -0.000000   11.467000    0.000000    60     0.1911
  3. axis:    no     0.000000    0.000000   23.497201   125     0.1880

  Lengths:  10.341746  11.467000  23.497201
  Angles:   90.000000  90.000000  90.000000

Effective grid spacing dv^(1/3) = 0.1902

                     log10-error:    total        iterations:
           time      wfs    density  energy       fermi  poisson
iter:   1  11:23:52  -2.73   +inf  -970.924770    2             
iter:   2  11:25:03  -3.64  -3.12  -970.924530    1             
iter:   3  11:26:14  -3.64  -3.14  -970.912601    2             
iter:   4  11:27:25  -4.44  -3.39  -970.912713    2             
iter:   5  11:28:35  -4.34  -3.42  -970.913097    2             
iter:   6  11:29:46  -4.35  -3.48  -970.911159    2             
iter:   7  11:30:57  -5.31  -3.81  -970.910896    2             
iter:   8  11:32:08  -5.61  -3.95  -970.910822    1             
iter:   9  11:33:18  -5.84  -4.15  -970.910863    1             
iter:  10  11:34:29  -6.03  -4.16  -970.910799    2             
iter:  11  11:35:40  -6.85  -4.42  -970.910800    1             
iter:  12  11:36:50  -7.11  -4.50  -970.910800    1             
iter:  13  11:38:01  -6.63  -4.57  -970.910802    1             
iter:  14  11:39:12  -7.12  -4.75  -970.910798    1             
iter:  15  11:40:22  -7.29  -4.96  -970.910798    1             
iter:  16  11:41:33  -7.38  -4.97  -970.910799    1             
iter:  17  11:42:44  -7.94  -5.11  -970.910797    1             

Converged after 17 iterations.

Dipole moment: (-17.291017, 4.717646, -1.293306) |e|*Ang

Energy contributions relative to reference atoms: (reference = -1046916.965077)

Kinetic:       +694.283097
Potential:     -886.668616
External:        +0.000000
XC:            -786.303478
Entropy (-ST):   -0.000503
Local:           +7.778451
--------------------------
Free energy:   -970.911049
Extrapolated:  -970.910797

Fermi level: -0.68173

Showing only first 2 kpts
 Kpt  Band  Eigenvalues  Occupancy
  0   462     -1.74951    0.22222
  0   463     -1.74695    0.22222
  0   464      0.17059    0.00004
  0   465      0.31156    0.00001

  1   462     -1.76402    0.44444
  1   463     -1.73609    0.44443
  1   464      0.36124    0.00001
  1   465      0.45217    0.00001



Forces in eV/Ang:
  0 O    -1.89353    0.00792    1.56045
  1 O    -1.92006   -0.00130    1.54772
  2 Ti    3.84029    0.01948    1.94829
  3 Ti    3.84507   -0.02406    1.96076
  4 Ti   -1.95873   -0.02792   -1.98898
  5 Ti   -1.88314    0.00997   -2.00984
  6 O     0.90210    0.01616   -0.19448
  7 O     0.85255    0.07155   -0.18193
  8 O    -0.71138    0.00991   -0.60749
  9 O    -0.69729    0.00853   -0.65949
 10 O    -0.27716   -0.01358   -0.86490
 11 O    -0.23620    0.08199   -0.86328
 12 O    -0.03419   -0.00202    0.06232
 13 O    -0.05131    0.00174    0.07208
 14 Ti    0.06299   -0.00996   -0.05631
 15 Ti    0.08009    0.00545   -0.01965
 16 Ti    0.03071    0.00176    0.05152
 17 Ti    0.05699    0.00146    0.02074
 18 O     0.01509   -0.01124   -0.06018
 19 O     0.02354   -0.01747   -0.01335
 20 O     0.02201    0.00390    0.01048
 21 O     0.02454   -0.00511    0.06457
 22 O     0.00965   -0.00279    0.07964
 23 O     0.02518   -0.03776    0.05063
 24 O    -0.01757   -0.01905   -0.00142
 25 O    -0.02363   -0.02280    0.02016
 26 Ti    0.08552    0.07123    0.05554
 27 Ti    0.09345    0.08603    0.02835
 28 Ti   -0.09705   -0.05533    0.09499
 29 Ti   -0.02492    0.01208    0.06834
 30 O     0.04559   -0.04835    0.08389
 31 O    -0.01038    0.04934   -0.00792
 32 O     0.03738   -0.02044   -0.08130
 33 O     0.05007   -0.01010   -0.11368
 34 O    -0.15166   -0.02701    0.09302
 35 O    -0.07675   -0.03019    0.09241
 36 O    -1.90771    0.00476    1.54596
 37 O    -1.90601    0.00910    1.60029
 38 Ti    3.65928   -0.05572    1.79426
 39 Ti    3.85127   -0.01975    1.91150
 40 Ti   -1.82437   -0.01081   -1.58011
 41 Ti   -1.60770   -0.04265   -1.67762
 42 O     0.94533    0.03589   -0.21455
 43 O     0.83513    0.01665   -0.18593
 44 O    -0.76159   -0.01472   -0.72134
 45 O    -0.67006    0.02507   -0.64305
 46 O    -0.31801    0.03603   -0.85240
 47 O    -0.21471    0.02781   -0.90906
 48 O    -0.00063   -0.00647    0.02575
 49 O    -0.02644    0.00679    0.03616
 50 Ti    0.02440    0.00412    0.00817
 51 Ti   -0.04315    0.00027    0.06766
 52 Ti    0.00321    0.02854    0.03890
 53 Ti    0.00564   -0.03428    0.06771
 54 O     0.06215   -0.02270   -0.03517
 55 O     0.11574    0.01340   -0.00849
 56 O     0.02615   -0.00369    0.03517
 57 O     0.01676   -0.02695    0.08879
 58 O     0.01732   -0.00433    0.06226
 59 O     0.05053    0.00634    0.10887
 60 O     0.02629   -0.00721    0.04690
 61 O    -0.01858   -0.02124   -0.06943
 62 Ti   -0.09472    0.09449    0.04174
 63 Ti    0.05695   -0.07451    0.11673
 64 Ti   -0.19280    0.10180    0.03846
 65 Ti   -0.06678   -0.06643   -0.03723
 66 O     0.05186   -0.00947    0.05009
 67 O    -0.01338    0.01141   -0.06033
 68 O     0.03299    0.04428    0.00341
 69 O     0.10189   -0.02233   -0.16421
 70 O    -0.05791   -0.01241   -0.10544
 71 O    -0.12952   -0.01372    0.01541
 72 O    -1.90783   -0.00201    1.55845
 73 O    -1.93865   -0.00491    1.60958
 74 Ti    3.59219    0.03833    1.72016
 75 Ti    3.83426    0.04117    1.93202
 76 Ti   -1.93740    0.03639   -2.03119
 77 Ti   -1.55630    0.02688   -1.83511
 78 O     0.95756    0.00946   -0.21544
 79 O     0.85349   -0.07277   -0.17827
 80 O    -0.70165   -0.02793   -0.60111
 81 O    -0.68110   -0.00899   -0.64539
 82 O    -0.32485   -0.02252   -0.88490
 83 O    -0.23219   -0.10889   -0.84810
 84 O    -0.04401   -0.00713    0.06119
 85 O    -0.05270   -0.00508    0.01841
 86 Ti    0.05674   -0.01979   -0.02336
 87 Ti    0.07199   -0.04562   -0.05452
 88 Ti    0.02783   -0.00521    0.02290
 89 Ti    0.00368    0.02425    0.05666
 90 O     0.03247    0.01822   -0.01918
 91 O     0.02640    0.01584   -0.04114
 92 O     0.02644   -0.00440    0.02084
 93 O     0.02279    0.01015    0.06662
 94 O     0.04297    0.01545    0.08831
 95 O     0.01758    0.00508    0.04327
 96 O     0.02488   -0.04417   -0.01018
 97 O    -0.00515    0.01023   -0.01430
 98 Ti    0.01812    0.08300    0.08809
 99 Ti    0.09461    0.01746    0.02021
100 Ti   -0.05385   -0.05016    0.09285
101 Ti    0.02070    0.05063   -0.06170
102 O     0.04604   -0.04707    0.17318
103 O    -0.02456   -0.05952    0.09356
104 O     0.03694    0.01571   -0.11578
105 O    -0.03568    0.04584   -0.18527
106 O    -0.13339    0.00792    0.04078
107 O    -0.11002   -0.07611    0.14216
108 V    -0.08715    0.20324   -0.00217
109 V     0.11853   -0.11050   -0.03837
110 O    -0.53256    0.08584   -0.12874
111 O    -0.05309   -0.07529    0.03501
112 O    -0.09888    0.07157    0.08720
113 O     0.03435    0.03246    0.02475
114 O     0.02075    0.00480   -0.00773
115 O     0.00285   -0.04984    0.08625
116 H     0.28423    0.23708   -0.00756
117 H     0.16378   -0.32177    0.07379

System changes: positions 

Initializing position-dependent things.

Density initialized from wave functions
                                                
                                                
                                                
                                                
                                                
                                                
                      O                         
                                                
                      V O       HiH             
             O    Oi  O         O    O          
                       OVO   O      Ti          
           O   O  O         OTi                 
               Ti     Oi   O O    O             
         O     O    O      Ti     Ti            
             Tii    Ti     OO   O               
             OO   OOO   O Ti   TiOi             
          O Ti   TiOi     O    O     O          
                O      Ti     TiO               
            O   TiO      O  O  O   O Ti         
         Ti     O    O Oi    Ti     O           
         O    OTi    Ti    OTiO   O             
             OTi    O O   O     O Ti            
                  O Ti     Oi     O             
             Oi     O    O      Ti              
           O      Ti    Ti     O                
          Ti          O      O                  
               O                                
                                                
                                                
                                                
                                                

Positions:
   0 O      8.476572    1.911173    6.000000    ( 0.0000,  0.0000,  0.0000)
   1 O      3.305699    0.000000    6.000000    ( 0.0000,  0.0000,  0.0000)
   2 Ti     1.412752    0.000000    6.752957    ( 0.0000,  0.0000,  0.0000)
   3 Ti     6.583625    1.911173    6.752957    ( 0.0000,  0.0000,  0.0000)
   4 Ti     9.522250    1.911173    7.640878    ( 0.0000,  0.0000,  0.0000)
   5 Ti     4.351376    0.000000    7.640878    ( 0.0000,  0.0000,  0.0000)
   6 O      9.861551    0.000000    7.505914    ( 0.0000,  0.0000,  0.0000)
   7 O      4.690678    1.911173    7.505914    ( 0.0000,  0.0000,  0.0000)
   8 O      7.629303    1.911173    8.393834    ( 0.0000,  0.0000,  0.0000)
   9 O      2.458430    0.000000    8.393834    ( 0.0000,  0.0000,  0.0000)
  10 O      6.244323    0.000000    6.887921    ( 0.0000,  0.0000,  0.0000)
  11 O      1.073450    1.911173    6.887921    ( 0.0000,  0.0000,  0.0000)
  12 O      9.785032    1.927975    9.588048    ( 0.0000,  0.0000,  0.0000)
  13 O      4.623218    0.005605    9.583814    ( 0.0000,  0.0000,  0.0000)
  14 Ti     2.757147    0.016528   10.378767    ( 0.0000,  0.0000,  0.0000)
  15 Ti     7.929649    1.916912   10.383937    ( 0.0000,  0.0000,  0.0000)
  16 Ti     0.490971    1.930157   11.135341    ( 0.0000,  0.0000,  0.0000)
  17 Ti     5.653214    0.007309   11.139124    ( 0.0000,  0.0000,  0.0000)
  18 O      0.915924    0.015003   11.056307    ( 0.0000,  0.0000,  0.0000)
  19 O      6.091853    1.917394   11.091133    ( 0.0000,  0.0000,  0.0000)
  20 O      9.031801    1.925892   11.964535    ( 0.0000,  0.0000,  0.0000)
  21 O      3.857209    0.005872   11.950539    ( 0.0000,  0.0000,  0.0000)
  22 O      7.556849    0.004963   10.460177    ( 0.0000,  0.0000,  0.0000)
  23 O      2.388001    1.927340   10.451492    ( 0.0000,  0.0000,  0.0000)
  24 O      0.923073    1.918387   13.080013    ( 0.0000,  0.0000,  0.0000)
  25 O      6.093180   11.447200   13.077956    ( 0.0000,  0.0000,  0.0000)
  26 Ti     4.217125   -0.039932   14.016591    ( 0.0000,  0.0000,  0.0000)
  27 Ti     9.401521    1.840592   14.016288    ( 0.0000,  0.0000,  0.0000)
  28 Ti     1.863372    1.915223   14.604132    ( 0.0000,  0.0000,  0.0000)
  29 Ti     7.018654   11.445528   14.605571    ( 0.0000,  0.0000,  0.0000)
  30 O      2.388672    0.002920   14.832427    ( 0.0000,  0.0000,  0.0000)
  31 O      7.567451    1.842145   14.785198    ( 0.0000,  0.0000,  0.0000)
  32 O      0.228169    1.843692   15.456641    ( 0.0000,  0.0000,  0.0000)
  33 O      5.402100   -0.005676   15.463678    ( 0.0000,  0.0000,  0.0000)
  34 O      9.021507   11.436782   13.964507    ( 0.0000,  0.0000,  0.0000)
  35 O      3.812508    1.903569   13.969598    ( 0.0000,  0.0000,  0.0000)
  36 O      8.476572    5.733518    6.000000    ( 0.0000,  0.0000,  0.0000)
  37 O      3.305699    3.822345    6.000000    ( 0.0000,  0.0000,  0.0000)
  38 Ti     1.412752    3.822345    6.752957    ( 0.0000,  0.0000,  0.0000)
  39 Ti     6.583625    5.733518    6.752957    ( 0.0000,  0.0000,  0.0000)
  40 Ti     9.522250    5.733518    7.640878    ( 0.0000,  0.0000,  0.0000)
  41 Ti     4.351376    3.822345    7.640878    ( 0.0000,  0.0000,  0.0000)
  42 O      9.861551    3.822345    7.505914    ( 0.0000,  0.0000,  0.0000)
  43 O      4.690678    5.733518    7.505914    ( 0.0000,  0.0000,  0.0000)
  44 O      7.629303    5.733518    8.393834    ( 0.0000,  0.0000,  0.0000)
  45 O      2.458430    3.822345    8.393834    ( 0.0000,  0.0000,  0.0000)
  46 O      6.244323    3.822345    6.887921    ( 0.0000,  0.0000,  0.0000)
  47 O      1.073450    5.733518    6.887921    ( 0.0000,  0.0000,  0.0000)
  48 O      9.795284    5.747080    9.611466    ( 0.0000,  0.0000,  0.0000)
  49 O      4.631342    3.830198    9.617909    ( 0.0000,  0.0000,  0.0000)
  50 Ti     2.784117    3.830297   10.333881    ( 0.0000,  0.0000,  0.0000)
  51 Ti     8.000363    5.727464   10.352075    ( 0.0000,  0.0000,  0.0000)
  52 Ti     0.535340    5.718732   11.271774    ( 0.0000,  0.0000,  0.0000)
  53 Ti     5.703160    3.846138   11.231657    ( 0.0000,  0.0000,  0.0000)
  54 O      0.922074    3.826889   11.072420    ( 0.0000,  0.0000,  0.0000)
  55 O      6.079584    5.732357   11.115423    ( 0.0000,  0.0000,  0.0000)
  56 O      9.027798    5.695393   11.979738    ( 0.0000,  0.0000,  0.0000)
  57 O      3.849390    3.818189   11.971708    ( 0.0000,  0.0000,  0.0000)
  58 O      7.543157    3.831683   10.466716    ( 0.0000,  0.0000,  0.0000)
  59 O      2.387442    5.736821   10.468139    ( 0.0000,  0.0000,  0.0000)
  60 O      0.912841    5.727964   13.155097    ( 0.0000,  0.0000,  0.0000)
  61 O      6.047502    3.796589   13.230428    ( 0.0000,  0.0000,  0.0000)
  62 Ti     4.202846    3.773776   13.880957    ( 0.0000,  0.0000,  0.0000)
  63 Ti     9.462952    5.745691   13.971820    ( 0.0000,  0.0000,  0.0000)
  64 Ti     1.936370    5.699573   14.970836    ( 0.0000,  0.0000,  0.0000)
  65 Ti     7.227856    3.808065   14.832620    ( 0.0000,  0.0000,  0.0000)
  66 O      2.353868    3.789573   14.809271    ( 0.0000,  0.0000,  0.0000)
  67 O      7.522526    5.747869   14.763226    ( 0.0000,  0.0000,  0.0000)
  68 O      0.178208    5.752536   15.521739    ( 0.0000,  0.0000,  0.0000)
  69 O      5.198958    3.796678   15.612397    ( 0.0000,  0.0000,  0.0000)
  70 O      8.991982    3.810030   14.095239    ( 0.0000,  0.0000,  0.0000)
  71 O      3.818031    5.710988   13.943422    ( 0.0000,  0.0000,  0.0000)
  72 O      8.476572    9.555862    6.000000    ( 0.0000,  0.0000,  0.0000)
  73 O      3.305699    7.644690    6.000000    ( 0.0000,  0.0000,  0.0000)
  74 Ti     1.412752    7.644690    6.752957    ( 0.0000,  0.0000,  0.0000)
  75 Ti     6.583625    9.555862    6.752957    ( 0.0000,  0.0000,  0.0000)
  76 Ti     9.522250    9.555862    7.640878    ( 0.0000,  0.0000,  0.0000)
  77 Ti     4.351376    7.644690    7.640878    ( 0.0000,  0.0000,  0.0000)
  78 O      9.861551    7.644690    7.505914    ( 0.0000,  0.0000,  0.0000)
  79 O      4.690678    9.555862    7.505914    ( 0.0000,  0.0000,  0.0000)
  80 O      7.629303    9.555862    8.393834    ( 0.0000,  0.0000,  0.0000)
  81 O      2.458430    7.644690    8.393834    ( 0.0000,  0.0000,  0.0000)
  82 O      6.244323    7.644690    6.887921    ( 0.0000,  0.0000,  0.0000)
  83 O      1.073450    9.555862    6.887921    ( 0.0000,  0.0000,  0.0000)
  84 O      9.789519    9.570379    9.582043    ( 0.0000,  0.0000,  0.0000)
  85 O      4.629247    7.643130    9.603168    ( 0.0000,  0.0000,  0.0000)
  86 Ti     2.744197    7.644091   10.328687    ( 0.0000,  0.0000,  0.0000)
  87 Ti     7.926556    9.572845   10.378802    ( 0.0000,  0.0000,  0.0000)
  88 Ti     0.499418    9.557915   11.121248    ( 0.0000,  0.0000,  0.0000)
  89 Ti     5.711443    7.627436   11.159134    ( 0.0000,  0.0000,  0.0000)
  90 O      0.922444    7.650833   11.084685    ( 0.0000,  0.0000,  0.0000)
  91 O      6.092988    9.555510   11.079015    ( 0.0000,  0.0000,  0.0000)
  92 O      9.029751    9.529615   11.948872    ( 0.0000,  0.0000,  0.0000)
  93 O      3.853028    7.645760   11.944472    ( 0.0000,  0.0000,  0.0000)
  94 O      7.550592    7.633809   10.466812    ( 0.0000,  0.0000,  0.0000)
  95 O      2.382374    9.557278   10.450581    ( 0.0000,  0.0000,  0.0000)
  96 O      0.909948    9.670126   13.061587    ( 0.0000,  0.0000,  0.0000)
  97 O      6.065856    7.678373   13.170327    ( 0.0000,  0.0000,  0.0000)
  98 Ti     4.119624    7.569123   13.823497    ( 0.0000,  0.0000,  0.0000)
  99 Ti     9.381712    9.546260   13.977407    ( 0.0000,  0.0000,  0.0000)
 100 Ti     1.856838    9.582529   14.574031    ( 0.0000,  0.0000,  0.0000)
 101 Ti     7.084642    7.613249   14.715796    ( 0.0000,  0.0000,  0.0000)
 102 O      2.343943    7.690604   14.622204    ( 0.0000,  0.0000,  0.0000)
 103 O      7.563284    9.557289   14.824626    ( 0.0000,  0.0000,  0.0000)
 104 O      0.213124    9.462764   15.442654    ( 0.0000,  0.0000,  0.0000)
 105 O      5.294496    7.475244   15.591849    ( 0.0000,  0.0000,  0.0000)
 106 O      8.946225    7.634909   13.962201    ( 0.0000,  0.0000,  0.0000)
 107 O      3.839680    9.565412   13.989503    ( 0.0000,  0.0000,  0.0000)
 108 V      5.828735    3.951010   17.277945    ( 0.0000,  0.0000,  0.0000)
 109 V      4.375812    6.796327   17.066442    ( 0.0000,  0.0000,  0.0000)
 110 O      8.147948    7.640400   16.744957    ( 0.0000,  0.0000,  0.0000)
 111 O      5.393529    2.783508   18.266100    ( 0.0000,  0.0000,  0.0000)
 112 O      4.052658    8.001015   18.047892    ( 0.0000,  0.0000,  0.0000)
 113 O      2.888479    5.999215   16.588716    ( 0.0000,  0.0000,  0.0000)
 114 O      7.487229    3.826829   16.737836    ( 0.0000,  0.0000,  0.0000)
 115 O      5.409956    5.607220   17.892201    ( 0.0000,  0.0000,  0.0000)
 116 H      8.912465    8.250847   16.719644    ( 0.0000,  0.0000,  0.0000)
 117 H      8.533611    6.768674   16.950965    ( 0.0000,  0.0000,  0.0000)

Unit cell:
           periodic     x           y           z      points  spacing
  1. axis:    yes   10.341746    0.000000    0.000000    54     0.1915
  2. axis:    yes   -0.000000   11.467000    0.000000    60     0.1911
  3. axis:    no     0.000000    0.000000   23.497201   125     0.1880

  Lengths:  10.341746  11.467000  23.497201
  Angles:   90.000000  90.000000  90.000000

Effective grid spacing dv^(1/3) = 0.1902

                     log10-error:    total        iterations:
           time      wfs    density  energy       fermi  poisson
iter:   1  11:44:23  -2.82   +inf  -970.945274    2             
iter:   2  11:45:34  -3.71  -3.21  -970.946516    2             
iter:   3  11:46:44  -3.94  -3.22  -970.940570    2             
iter:   4  11:47:55  -4.30  -3.45  -970.940636    2             
iter:   5  11:49:06  -4.28  -3.52  -970.940893    2             
iter:   6  11:50:17  -4.68  -3.61  -970.939543    2             
iter:   7  11:51:28  -5.18  -3.96  -970.939559    2             
iter:   8  11:52:39  -5.74  -4.00  -970.939476    1             
iter:   9  11:53:49  -6.31  -4.18  -970.939475    1             
iter:  10  11:55:00  -5.56  -4.21  -970.939459    1             
iter:  11  11:56:11  -6.70  -4.43  -970.939429    1             
iter:  12  11:57:22  -6.68  -4.52  -970.939426    1             
iter:  13  11:58:33  -6.69  -4.54  -970.939425    1             
iter:  14  11:59:44  -7.02  -4.80  -970.939424    1             
iter:  15  12:00:54  -7.98  -4.91  -970.939424    1             

Converged after 15 iterations.

Dipole moment: (-17.309098, 4.910298, -1.306407) |e|*Ang

Energy contributions relative to reference atoms: (reference = -1046916.965077)

Kinetic:       +693.027208
Potential:     -885.676677
External:        +0.000000
XC:            -786.081093
Entropy (-ST):   -0.000496
Local:           +7.791386
--------------------------
Free energy:   -970.939672
Extrapolated:  -970.939424

Fermi level: -0.68682

Showing only first 2 kpts
 Kpt  Band  Eigenvalues  Occupancy
  0   462     -1.75718    0.22222
  0   463     -1.75496    0.22222
  0   464      0.16750    0.00004
  0   465      0.30602    0.00001

  1   462     -1.77077    0.44444
  1   463     -1.74422    0.44443
  1   464      0.35886    0.00001
  1   465      0.44659    0.00001



Forces in eV/Ang:
  0 O    -1.89187    0.00725    1.56286
  1 O    -1.91766   -0.00143    1.55157
  2 Ti    3.83574    0.01987    1.94301
  3 Ti    3.84001   -0.01902    1.95731
  4 Ti   -1.95007   -0.02437   -1.96485
  5 Ti   -1.87898    0.01152   -1.99323
  6 O     0.90181    0.01581   -0.19249
  7 O     0.85605    0.06336   -0.18196
  8 O    -0.72761    0.00920   -0.62829
  9 O    -0.71561    0.00819   -0.68814
 10 O    -0.27635   -0.01549   -0.86335
 11 O    -0.23873    0.07446   -0.86244
 12 O     0.03404   -0.00170    0.04990
 13 O     0.02884   -0.00035    0.06148
 14 Ti    0.06382   -0.00020    0.00011
 15 Ti    0.08278    0.00390    0.03572
 16 Ti    0.00768    0.00041    0.01433
 17 Ti    0.03765    0.01079    0.00294
 18 O    -0.04458    0.00543   -0.02892
 19 O    -0.04118   -0.02138    0.00274
 20 O     0.03053   -0.00642   -0.02592
 21 O     0.03063   -0.01419    0.04858
 22 O     0.02652   -0.01426    0.06410
 23 O     0.03463   -0.05227    0.04900
 24 O     0.02029   -0.02181   -0.00351
 25 O     0.00610   -0.02306    0.03045
 26 Ti    0.07168    0.04455    0.13707
 27 Ti    0.06871    0.04020    0.07410
 28 Ti   -0.13703   -0.05116    0.10616
 29 Ti   -0.08108    0.00877    0.05771
 30 O     0.02893   -0.07278    0.05124
 31 O    -0.04322    0.03662    0.00017
 32 O     0.01071   -0.00905   -0.09866
 33 O     0.03663    0.00123   -0.15265
 34 O    -0.08414   -0.03619    0.06113
 35 O     0.02521   -0.01240    0.05378
 36 O    -1.90170    0.00472    1.55160
 37 O    -1.90602    0.00838    1.59828
 38 Ti    3.66991   -0.05109    1.80223
 39 Ti    3.84116   -0.02132    1.91097
 40 Ti   -1.81851   -0.01106   -1.54939
 41 Ti   -1.61792   -0.03862   -1.64554
 42 O     0.94070    0.03541   -0.21162
 43 O     0.84123    0.01680   -0.18890
 44 O    -0.75099   -0.01252   -0.70588
 45 O    -0.68464    0.02758   -0.65819
 46 O    -0.31284    0.03409   -0.85757
 47 O    -0.21957    0.02800   -0.90948
 48 O    -0.00279   -0.00832   -0.01604
 49 O     0.02697    0.00877    0.03601
 50 Ti    0.04676   -0.00479    0.01267
 51 Ti    0.01244   -0.00191    0.11073
 52 Ti   -0.01748    0.02239    0.07039
 53 Ti    0.01000   -0.03179    0.05431
 54 O    -0.02023   -0.01331    0.01275
 55 O     0.05442    0.02255   -0.00999
 56 O     0.04177    0.00516   -0.00942
 57 O     0.01304   -0.03584    0.06674
 58 O     0.03767   -0.01126    0.04356
 59 O     0.07443    0.01199    0.08842
 60 O    -0.02008   -0.01215    0.03343
 61 O    -0.03864   -0.02011   -0.04871
 62 Ti   -0.11773    0.09155    0.00694
 63 Ti    0.08851   -0.05201    0.14622
 64 Ti   -0.22860    0.08461    0.10608
 65 Ti   -0.04880   -0.05767   -0.03537
 66 O     0.03235   -0.00096    0.06426
 67 O    -0.03449    0.02905   -0.04940
 68 O     0.03181    0.02709   -0.08608
 69 O     0.06877   -0.00310   -0.12366
 70 O    -0.03116    0.00987   -0.04471
 71 O    -0.05116    0.02775   -0.01145
 72 O    -1.90936   -0.00155    1.56030
 73 O    -1.93998   -0.00407    1.60615
 74 Ti    3.60466    0.03317    1.72742
 75 Ti    3.82610    0.03745    1.92290
 76 Ti   -1.92363    0.03395   -2.01885
 77 Ti   -1.56745    0.02174   -1.81527
 78 O     0.95233    0.00938   -0.21241
 79 O     0.85782   -0.06438   -0.17784
 80 O    -0.72254   -0.02686   -0.62291
 81 O    -0.70452   -0.01135   -0.67756
 82 O    -0.31965   -0.01844   -0.88686
 83 O    -0.23523   -0.10155   -0.84531
 84 O     0.02948   -0.00925    0.06086
 85 O     0.02299   -0.00573    0.01693
 86 Ti    0.04299   -0.01940   -0.01875
 87 Ti    0.06779   -0.03395    0.00017
 88 Ti    0.01783   -0.01123   -0.01006
 89 Ti    0.03007    0.01331    0.01168
 90 O    -0.02837    0.03870    0.00658
 91 O    -0.04207    0.00992   -0.02517
 92 O     0.03294   -0.00018   -0.00595
 93 O     0.01930    0.01032    0.12336
 94 O     0.04650    0.00934    0.06845
 95 O     0.02706   -0.01304    0.03696
 96 O     0.04730   -0.03787    0.02036
 97 O     0.03519    0.01612    0.11644
 98 Ti   -0.06693    0.06841    0.08410
 99 Ti    0.07193    0.03759    0.08118
100 Ti   -0.10245   -0.05757    0.10464
101 Ti    0.02431    0.01717   -0.11676
102 O     0.06712    0.00737    0.11730
103 O    -0.04671   -0.03441    0.06001
104 O     0.03072    0.01393   -0.13601
105 O    -0.03548    0.00150   -0.10117
106 O    -0.06850   -0.01265    0.00892
107 O    -0.03880   -0.04403    0.11744
108 V    -0.05455    0.21418   -0.08935
109 V     0.13995   -0.11159   -0.09838
110 O    -0.31107    0.06900   -0.08015
111 O    -0.08134   -0.14068    0.09912
112 O    -0.09408    0.14549    0.13787
113 O    -0.03227   -0.02232   -0.03852
114 O     0.05732    0.01043   -0.00041
115 O     0.00983   -0.02897    0.05647
116 H     0.12412    0.13529   -0.01499
117 H     0.09496   -0.20834    0.03790

System changes: positions 

Initializing position-dependent things.

Density initialized from wave functions
                                                
                                                
                                                
                                                
                                                
                                                
                      O                         
                                                
                      V O       HiH             
             O    Oi  O         O    O          
                       OVO   O      Ti          
           O   O  O         OTi                 
               Ti     Oi   O O    O             
         O     O    O      Ti     Ti            
             Tii    Ti     OO   O               
[...]
   7 O      4.690678    1.911173    7.505914    ( 0.0000,  0.0000,  0.0000)
   8 O      7.629303    1.911173    8.393834    ( 0.0000,  0.0000,  0.0000)
   9 O      2.458430    0.000000    8.393834    ( 0.0000,  0.0000,  0.0000)
  10 O      6.244323    0.000000    6.887921    ( 0.0000,  0.0000,  0.0000)
  11 O      1.073450    1.911173    6.887921    ( 0.0000,  0.0000,  0.0000)
  12 O      9.797761    1.919047    9.602731    ( 0.0000,  0.0000,  0.0000)
  13 O      4.630597   -0.000925    9.605352    ( 0.0000,  0.0000,  0.0000)
  14 Ti     2.784730    0.003606   10.402061    ( 0.0000,  0.0000,  0.0000)
  15 Ti     7.956329    1.901449   10.399274    ( 0.0000,  0.0000,  0.0000)
  16 Ti     0.506957    1.920746   11.158281    ( 0.0000,  0.0000,  0.0000)
  17 Ti     5.662117   -0.004990   11.169208    ( 0.0000,  0.0000,  0.0000)
  18 O      0.922758    0.004574   11.063417    ( 0.0000,  0.0000,  0.0000)
  19 O      6.100250    1.903827   11.097232    ( 0.0000,  0.0000,  0.0000)
  20 O      9.049673    1.900183   11.986915    ( 0.0000,  0.0000,  0.0000)
  21 O      3.869062   -0.005495   11.990233    ( 0.0000,  0.0000,  0.0000)
  22 O      7.579306   -0.003183   10.499681    ( 0.0000,  0.0000,  0.0000)
  23 O      2.408500    1.912885   10.488246    ( 0.0000,  0.0000,  0.0000)
  24 O      0.927232    1.891017   13.118880    ( 0.0000,  0.0000,  0.0000)
  25 O      6.086079   11.435007   13.125823    ( 0.0000,  0.0000,  0.0000)
  26 Ti     4.217518   -0.002232   14.086878    ( 0.0000,  0.0000,  0.0000)
  27 Ti     9.399635    1.856690   14.048571    ( 0.0000,  0.0000,  0.0000)
  28 Ti     1.851140    1.902609   14.654803    ( 0.0000,  0.0000,  0.0000)
  29 Ti     7.016442   11.440145   14.647506    ( 0.0000,  0.0000,  0.0000)
  30 O      2.368255   -0.006144   14.880149    ( 0.0000,  0.0000,  0.0000)
  31 O      7.542577    1.856924   14.789609    ( 0.0000,  0.0000,  0.0000)
  32 O      0.211118    1.883399   15.494122    ( 0.0000,  0.0000,  0.0000)
  33 O      5.406354    0.003905   15.518457    ( 0.0000,  0.0000,  0.0000)
  34 O      9.016002   11.435927   14.082852    ( 0.0000,  0.0000,  0.0000)
  35 O      3.810669    1.897129   14.083553    ( 0.0000,  0.0000,  0.0000)
  36 O      8.476572    5.733518    6.000000    ( 0.0000,  0.0000,  0.0000)
  37 O      3.305699    3.822345    6.000000    ( 0.0000,  0.0000,  0.0000)
  38 Ti     1.412752    3.822345    6.752957    ( 0.0000,  0.0000,  0.0000)
  39 Ti     6.583625    5.733518    6.752957    ( 0.0000,  0.0000,  0.0000)
  40 Ti     9.522250    5.733518    7.640878    ( 0.0000,  0.0000,  0.0000)
  41 Ti     4.351376    3.822345    7.640878    ( 0.0000,  0.0000,  0.0000)
  42 O      9.861551    3.822345    7.505914    ( 0.0000,  0.0000,  0.0000)
  43 O      4.690678    5.733518    7.505914    ( 0.0000,  0.0000,  0.0000)
  44 O      7.629303    5.733518    8.393834    ( 0.0000,  0.0000,  0.0000)
  45 O      2.458430    3.822345    8.393834    ( 0.0000,  0.0000,  0.0000)
  46 O      6.244323    3.822345    6.887921    ( 0.0000,  0.0000,  0.0000)
  47 O      1.073450    5.733518    6.887921    ( 0.0000,  0.0000,  0.0000)
  48 O      9.803017    5.734750    9.618431    ( 0.0000,  0.0000,  0.0000)
  49 O      4.635658    3.827207    9.632078    ( 0.0000,  0.0000,  0.0000)
  50 Ti     2.800827    3.817918   10.340507    ( 0.0000,  0.0000,  0.0000)
  51 Ti     8.013591    5.719208   10.369009    ( 0.0000,  0.0000,  0.0000)
  52 Ti     0.546704    5.716416   11.291981    ( 0.0000,  0.0000,  0.0000)
  53 Ti     5.718924    3.825100   11.259968    ( 0.0000,  0.0000,  0.0000)
  54 O      0.929584    3.818401   11.083100    ( 0.0000,  0.0000,  0.0000)
  55 O      6.093219    5.727698   11.121382    ( 0.0000,  0.0000,  0.0000)
  56 O      9.041862    5.698190   11.988883    ( 0.0000,  0.0000,  0.0000)
  57 O      3.842665    3.771453   11.992786    ( 0.0000,  0.0000,  0.0000)
  58 O      7.567281    3.818717   10.512482    ( 0.0000,  0.0000,  0.0000)
  59 O      2.420884    5.731011   10.512095    ( 0.0000,  0.0000,  0.0000)
  60 O      0.903492    5.721263   13.181013    ( 0.0000,  0.0000,  0.0000)
  61 O      6.019342    3.787082   13.227182    ( 0.0000,  0.0000,  0.0000)
  62 Ti     4.147193    3.830271   13.892105    ( 0.0000,  0.0000,  0.0000)
  63 Ti     9.450209    5.733826   13.988043    ( 0.0000,  0.0000,  0.0000)
  64 Ti     1.904535    5.708728   15.009870    ( 0.0000,  0.0000,  0.0000)
  65 Ti     7.191207    3.798294   14.825360    ( 0.0000,  0.0000,  0.0000)
  66 O      2.335958    3.795295   14.834005    ( 0.0000,  0.0000,  0.0000)
  67 O      7.499169    5.740377   14.697678    ( 0.0000,  0.0000,  0.0000)
  68 O      0.147096    5.761123   15.546563    ( 0.0000,  0.0000,  0.0000)
  69 O      5.203783    3.840716   15.598591    ( 0.0000,  0.0000,  0.0000)
  70 O      8.981017    3.805363   14.094267    ( 0.0000,  0.0000,  0.0000)
  71 O      3.780341    5.715563   13.947500    ( 0.0000,  0.0000,  0.0000)
  72 O      8.476572    9.555862    6.000000    ( 0.0000,  0.0000,  0.0000)
  73 O      3.305699    7.644690    6.000000    ( 0.0000,  0.0000,  0.0000)
  74 Ti     1.412752    7.644690    6.752957    ( 0.0000,  0.0000,  0.0000)
  75 Ti     6.583625    9.555862    6.752957    ( 0.0000,  0.0000,  0.0000)
  76 Ti     9.522250    9.555862    7.640878    ( 0.0000,  0.0000,  0.0000)
  77 Ti     4.351376    7.644690    7.640878    ( 0.0000,  0.0000,  0.0000)
  78 O      9.861551    7.644690    7.505914    ( 0.0000,  0.0000,  0.0000)
  79 O      4.690678    9.555862    7.505914    ( 0.0000,  0.0000,  0.0000)
  80 O      7.629303    9.555862    8.393834    ( 0.0000,  0.0000,  0.0000)
  81 O      2.458430    7.644690    8.393834    ( 0.0000,  0.0000,  0.0000)
  82 O      6.244323    7.644690    6.887921    ( 0.0000,  0.0000,  0.0000)
  83 O      1.073450    9.555862    6.887921    ( 0.0000,  0.0000,  0.0000)
  84 O      9.801083    9.554044    9.597900    ( 0.0000,  0.0000,  0.0000)
  85 O      4.634940    7.633285    9.615192    ( 0.0000,  0.0000,  0.0000)
  86 Ti     2.763014    7.634488   10.341171    ( 0.0000,  0.0000,  0.0000)
  87 Ti     7.951432    9.563177   10.391926    ( 0.0000,  0.0000,  0.0000)
  88 Ti     0.511467    9.555685   11.146886    ( 0.0000,  0.0000,  0.0000)
  89 Ti     5.719765    7.621779   11.177013    ( 0.0000,  0.0000,  0.0000)
  90 O      0.929955    7.644385   11.091961    ( 0.0000,  0.0000,  0.0000)
  91 O      6.100141    9.551982   11.076738    ( 0.0000,  0.0000,  0.0000)
  92 O      9.045382    9.547988   11.976048    ( 0.0000,  0.0000,  0.0000)
  93 O      3.857833    7.668723   11.973945    ( 0.0000,  0.0000,  0.0000)
  94 O      7.575330    7.632560   10.505034    ( 0.0000,  0.0000,  0.0000)
  95 O      2.402955    9.551195   10.488196    ( 0.0000,  0.0000,  0.0000)
  96 O      0.915202    9.652365   13.104462    ( 0.0000,  0.0000,  0.0000)
  97 O      6.053201    7.704170   13.177883    ( 0.0000,  0.0000,  0.0000)
  98 Ti     4.100132    7.621676   13.859394    ( 0.0000,  0.0000,  0.0000)
  99 Ti     9.381364    9.548773   14.014507    ( 0.0000,  0.0000,  0.0000)
 100 Ti     1.841803    9.574395   14.631094    ( 0.0000,  0.0000,  0.0000)
 101 Ti     7.080089    7.608253   14.699211    ( 0.0000,  0.0000,  0.0000)
 102 O      2.330730    7.683479   14.675605    ( 0.0000,  0.0000,  0.0000)
 103 O      7.544300    9.545198   14.851223    ( 0.0000,  0.0000,  0.0000)
 104 O      0.198578    9.444806   15.479235    ( 0.0000,  0.0000,  0.0000)
 105 O      5.263849    7.460511   15.580480    ( 0.0000,  0.0000,  0.0000)
 106 O      8.935179    7.636614   13.981907    ( 0.0000,  0.0000,  0.0000)
 107 O      3.832182    9.559164   14.096447    ( 0.0000,  0.0000,  0.0000)
 108 V      5.812372    3.995977   17.274533    ( 0.0000,  0.0000,  0.0000)
 109 V      4.359024    6.806841   17.071707    ( 0.0000,  0.0000,  0.0000)
 110 O      8.039272    7.591934   16.750641    ( 0.0000,  0.0000,  0.0000)
 111 O      5.359151    2.823661   18.255104    ( 0.0000,  0.0000,  0.0000)
 112 O      4.010763    8.021672   18.039801    ( 0.0000,  0.0000,  0.0000)
 113 O      2.884333    5.964606   16.615825    ( 0.0000,  0.0000,  0.0000)
 114 O      7.470985    3.857247   16.736350    ( 0.0000,  0.0000,  0.0000)
 115 O      5.412014    5.647502   17.912661    ( 0.0000,  0.0000,  0.0000)
 116 H      8.750022    8.267494   16.790812    ( 0.0000,  0.0000,  0.0000)
 117 H      8.493132    6.740711   16.927011    ( 0.0000,  0.0000,  0.0000)

Unit cell:
           periodic     x           y           z      points  spacing
  1. axis:    yes   10.341746    0.000000    0.000000    54     0.1915
  2. axis:    yes   -0.000000   11.467000    0.000000    60     0.1911
  3. axis:    no     0.000000    0.000000   23.497201   125     0.1880

  Lengths:  10.341746  11.467000  23.497201
  Angles:   90.000000  90.000000  90.000000

Effective grid spacing dv^(1/3) = 0.1902

                     log10-error:    total        iterations:
           time      wfs    density  energy       fermi  poisson
iter:   1  09:13:37  -3.88   +inf  -971.059620    2             
iter:   2  09:14:48  -4.85  -3.64  -971.059174    2             
iter:   3  09:15:59  -4.13  -3.66  -971.058120    2             
iter:   4  09:17:09  -5.55  -3.84  -971.057712    2             
iter:   5  09:18:20  -5.65  -3.92  -971.057769    2             
iter:   6  09:19:31  -5.31  -3.93  -971.057553    2             
iter:   7  09:20:42  -6.14  -4.19  -971.057511    2             
iter:   8  09:21:53  -6.43  -4.46  -971.057505    1             
iter:   9  09:23:04  -6.68  -4.59  -971.057514    1             
iter:  10  09:24:15  -6.23  -4.55  -971.057501    2             
iter:  11  09:25:26  -7.62  -4.84  -971.057497    1             

Converged after 11 iterations.

Dipole moment: (-15.287001, 9.613886, -1.270512) |e|*Ang

Energy contributions relative to reference atoms: (reference = -1046916.965077)

Kinetic:       +682.109545
Potential:     -877.014947
External:        +0.000000
XC:            -783.948943
Entropy (-ST):   -0.000481
Local:           +7.797089
--------------------------
Free energy:   -971.057737
Extrapolated:  -971.057497

Fermi level: -0.67542

Showing only first 2 kpts
 Kpt  Band  Eigenvalues  Occupancy
  0   462     -1.75083    0.22222
  0   463     -1.74667    0.22222
  0   464      0.17996    0.00004
  0   465      0.32587    0.00001

  1   462     -1.76529    0.44444
  1   463     -1.73659    0.44443
  1   464      0.37444    0.00001
  1   465      0.46408    0.00001



Forces in eV/Ang:
  0 O    -1.84857    0.00407    1.57274
  1 O    -1.84515   -0.00260    1.56940
  2 Ti    3.87841    0.01468    2.02760
  3 Ti    3.86616   -0.01227    2.00426
  4 Ti   -1.98927   -0.00916   -1.88040
  5 Ti   -1.97343    0.01574   -1.87422
  6 O     0.88445   -0.00312   -0.16693
  7 O     0.84540    0.04534   -0.15632
  8 O    -0.64566   -0.00275   -0.49846
  9 O    -0.63468   -0.00529   -0.58503
 10 O    -0.28435   -0.01765   -0.90065
 11 O    -0.24680    0.08756   -0.90134
 12 O    -0.00150    0.00160    0.00070
 13 O     0.00399    0.00012   -0.00432
 14 Ti    0.00152    0.00014    0.00131
 15 Ti    0.00094    0.00030    0.00247
 16 Ti   -0.00040   -0.00033    0.00499
 17 Ti    0.00029    0.00098    0.00184
 18 O     0.00335    0.00002   -0.00069
 19 O    -0.00209    0.00033    0.00006
 20 O    -0.00304   -0.00314    0.00064
 21 O    -0.00138   -0.00033   -0.00411
 22 O    -0.00274    0.00181    0.00201
 23 O    -0.00307   -0.00011    0.00321
 24 O    -0.00266    0.00181   -0.00446
 25 O    -0.00083    0.00072   -0.00318
 26 Ti   -0.00097    0.00070    0.00193
 27 Ti    0.00051   -0.00181    0.00456
 28 Ti    0.00011   -0.00135    0.00482
 29 Ti    0.00025    0.00139    0.00521
 30 O     0.00111   -0.00029   -0.00017
 31 O    -0.00037    0.00176   -0.00174
 32 O    -0.00115    0.00054   -0.00516
 33 O    -0.00425    0.00102   -0.00099
 34 O    -0.00204   -0.00041    0.00065
 35 O    -0.00069   -0.00225   -0.00376
 36 O    -1.88019    0.00228    1.54687
 37 O    -1.87382    0.00689    1.60852
 38 Ti    3.66087   -0.05235    1.82022
 39 Ti    3.87797   -0.02335    1.95989
 40 Ti   -1.86492   -0.00983   -1.46760
 41 Ti   -1.62255   -0.02418   -1.55272
 42 O     0.93849   -0.00044   -0.20416
 43 O     0.82540    0.00874   -0.17643
 44 O    -0.70556   -0.02082   -0.64610
 45 O    -0.65760    0.01081   -0.54460
 46 O    -0.32573    0.02292   -0.85983
 47 O    -0.21532    0.02062   -0.90812
 48 O    -0.00071   -0.00026    0.00024
 49 O    -0.00099    0.00106    0.00193
 50 Ti    0.00081    0.00036    0.00058
 51 Ti    0.00082   -0.00052    0.00166
 52 Ti   -0.00004    0.00055    0.00343
 53 Ti   -0.00006   -0.00061    0.00571
 54 O    -0.00177    0.00175    0.00092
 55 O     0.00178    0.00223    0.00084
 56 O     0.00212    0.00011   -0.00103
 57 O    -0.00180    0.00167    0.00006
 58 O     0.00147   -0.00016    0.00638
 59 O     0.00154   -0.00206    0.00277
 60 O     0.00055    0.00121    0.00456
 61 O    -0.00175    0.00223   -0.00362
 62 Ti   -0.00428    0.00001    0.00189
 63 Ti   -0.00103   -0.00251    0.00110
 64 Ti   -0.00282   -0.00208    0.00239
 65 Ti    0.00018   -0.00049    0.00158
 66 O     0.00178   -0.00403    0.00474
 67 O    -0.00270    0.00011    0.00068
 68 O    -0.00437    0.00012    0.00082
 69 O     0.00194   -0.00185   -0.00553
 70 O     0.00071   -0.00037    0.00013
 71 O    -0.00602    0.00148   -0.00032
 72 O    -1.86496   -0.00391    1.57311
 73 O    -1.89907   -0.00530    1.61629
 74 Ti    3.61236    0.03587    1.77046
 75 Ti    3.84718    0.03055    1.96542
 76 Ti   -1.95395    0.02369   -1.92302
 77 Ti   -1.60890    0.01090   -1.75878
 78 O     0.94560    0.01322   -0.20468
 79 O     0.84989   -0.06445   -0.15212
 80 O    -0.64241   -0.01880   -0.50825
 81 O    -0.65722   -0.01644   -0.53465
 82 O    -0.33037   -0.00526   -0.88282
 83 O    -0.24622   -0.10922   -0.88607
 84 O    -0.00204    0.00107    0.00023
 85 O     0.00066   -0.00128   -0.00039
 86 Ti   -0.00001   -0.00060    0.00049
 87 Ti   -0.00138    0.00048    0.00319
 88 Ti    0.00085    0.00113    0.00240
 89 Ti    0.00020    0.00064    0.00226
 90 O     0.00086    0.00065   -0.00198
 91 O    -0.00118    0.00026    0.00168
 92 O    -0.00169    0.00111   -0.00077
 93 O    -0.00026   -0.00151   -0.00162
 94 O    -0.00052   -0.00012    0.00324
 95 O     0.00257   -0.00158    0.00444
 96 O     0.00089   -0.00174   -0.00243
 97 O    -0.00054    0.00046    0.00151
 98 Ti   -0.00204    0.00144    0.00117
 99 Ti   -0.00076    0.00057    0.00177
100 Ti   -0.00091    0.00165    0.00343
101 Ti    0.00128    0.00034    0.00156
102 O     0.00106    0.00234    0.00415
103 O     0.00087    0.00310    0.00266
104 O    -0.00227    0.00191   -0.00285
105 O    -0.00290    0.00171   -0.00122
106 O    -0.00248   -0.00009    0.00190
107 O    -0.00104    0.00028   -0.00095
108 V     0.00306    0.00602   -0.00279
109 V     0.00146   -0.00276   -0.00089
110 O     0.00094   -0.00271   -0.00062
111 O    -0.00046    0.00416   -0.00433
112 O    -0.00000    0.00006    0.00078
113 O     0.00047    0.00156   -0.00171
114 O     0.00273   -0.00064   -0.00150
115 O    -0.00112    0.00261    0.00438
116 H    -0.00571    0.00102    0.00449
117 H    -0.00011   -0.00399    0.00159

Timing:                                      incl.     excl.
-------------------------------------------------------------------
Density initialized from wave functions:   231.721   231.719   0.3% |
 Symmetrize density:                         0.002     0.002   0.0% |
Forces:                                   1806.196  1806.196   2.2% ||
Hamiltonian:                                89.652     1.301   0.0% |
 Atomic:                                    27.976     6.469   0.0% |
  XC Correction:                            21.507    21.507   0.0% |
 Calculate atomic Hamiltonians:             42.427    42.427   0.1% |
 Communicate:                                3.582     3.582   0.0% |
 Initialize Hamiltonian:                     0.000     0.000   0.0% |
 Poisson:                                    0.104     0.104   0.0% |
 XC 3D grid:                                14.263    14.263   0.0% |
LCAO initialization:                       224.302     1.992   0.0% |
 LCAO eigensolver:                          71.075     0.101   0.0% |
  Calculate projections:                     0.000     0.000   0.0% |
  DenseAtomicCorrection:                     0.001     0.001   0.0% |
  Distribute overlap matrix:                 5.918     5.918   0.0% |
  Orbital Layouts:                          58.053    58.053   0.1% |
  Potential matrix:                          0.068     0.068   0.0% |
  Sum over cells:                            6.935     6.935   0.0% |
 LCAO to grid:                             145.976   145.976   0.2% |
 Set positions (LCAO WFS):                   5.259     4.398   0.0% |
  Basic WFS set positions:                   0.003     0.003   0.0% |
  Basis functions set positions:             0.001     0.001   0.0% |
  P tci:                                     0.007     0.007   0.0% |
  ST tci:                                    0.519     0.519   0.0% |
  mktci:                                     0.331     0.331   0.0% |
PWDescriptor:                                0.318     0.318   0.0% |
Redistribute:                                0.178     0.178   0.0% |
SCF-cycle:                               80056.125     1.822   0.0% |
 Davidson:                               76277.707 20175.953  24.3% |---------|
  Apply H:                               10124.915  9803.293  11.8% |----|
   HMM T:                                  321.622   321.622   0.4% |
  Subspace diag:                          8644.920     0.945   0.0% |
   calc_h_matrix:                         4903.433  1535.516   1.9% ||
    Apply H:                              3367.918  3259.323   3.9% |-|
     HMM T:                                108.595   108.595   0.1% |
   diagonalize:                            874.398   874.398   1.1% |
   rotate_psi:                            2866.144  2866.144   3.5% ||
  calc. matrices:                        17848.936 11162.324  13.5% |----|
   Apply H:                               6686.611  6473.019   7.8% |--|
    HMM T:                                 213.593   213.593   0.3% |
  diagonalize:                           13470.264 13470.264  16.2% |-----|
  rotate_psi:                             6012.720  6012.720   7.3% |--|
 Density:                                 2220.874     0.028   0.0% |
  Atomic density matrices:                  15.438    15.438   0.0% |
  Mix:                                     459.425   459.425   0.6% |
  Multipole moments:                         0.435     0.435   0.0% |
  Pseudo density:                         1745.548  1745.522   2.1% ||
   Symmetrize density:                       0.026     0.026   0.0% |
 Hamiltonian:                              845.865    12.245   0.0% |
  Atomic:                                  264.411    60.048   0.1% |
   XC Correction:                          204.363   204.363   0.2% |
  Calculate atomic Hamiltonians:           400.341   400.341   0.5% |
  Communicate:                              32.315    32.315   0.0% |
  Poisson:                                   0.980     0.980   0.0% |
  XC 3D grid:                              135.573   135.573   0.2% |
 Orthonormalize:                           709.857     0.135   0.0% |
  calc_s_matrix:                            72.463    72.463   0.1% |
  inverse-cholesky:                         43.119    43.119   0.1% |
  projections:                             459.898   459.898   0.6% |
  rotate_psi_s:                            134.243   134.243   0.2% |
Set symmetry:                                0.001     0.001   0.0% |
Other:                                     518.743   518.743   0.6% |
-------------------------------------------------------------------
Total:                                             82927.236 100.0%

Memory usage: 1.38 GiB
Date: Sat May 25 09:25:42 2019
