
  ___ ___ ___ _ _ _  
 |   |   |_  | | | | 
 | | | | | . | | | | 
 |__ |  _|___|_____|  1.5.1
 |___|_|             

User:   siva@s81n13.grendel.cscaa.dk
Date:   Fri May 24 10:21:01 2019
Arch:   x86_64
Pid:    12631
Python: 3.6.3
gpaw:   /home/siva/gpaw-1.5.1/gpaw
_gpaw:  /home/siva/gpaw-1.5.1/build/bin.linux-x86_64-3.6/gpaw-python
ase:    /home/siva/env1.5/lib/python3.6/site-packages/ase (version 3.17.0)
numpy:  /home/siva/env1.5/lib/python3.6/site-packages/numpy (version 1.16.0)
scipy:  /home/siva/env1.5/lib/python3.6/site-packages/scipy (version 1.2.0)
units:  Angstrom and eV
cores:  24
Extra parameters: {'blacs': True}

Input parameters:
  basis: dzp
  kpts: [3 3 1]
  mode: {ecut: 500.0,
         gammacentered: False,
         name: pw}
  xc: PBE

System changes: positions, numbers, cell, pbc, initial_charges, initial_magmoms 

Initialize ...

O-setup:
  name: Oxygen
  id: 32ecd46bf208036f09c70b0ec9a88b78
  Z: 8
  valence: 6
  core: 2
  charge: 0.0
  file: /home/wido/sw/gpaw/basis/gpaw-setups-0.9.20000/O.PBE.gz
  cutoffs: 0.67(comp), 1.17(filt), 0.83(core), lmax=2
  valence states:
                energy  radius
    2s(2.00)   -23.961   0.688
    2p(4.00)    -9.029   0.598
    *s           3.251   0.688
    *p          18.182   0.598
    *d           0.000   0.619

  LCAO basis set for O:
    Name: dzp
    File: /home/wido/sw/gpaw/basis/gpaw-setups-0.9.20000/O.dzp.basis.gz
    Number of radial functions: 5
    Number of spherical harmonics: 13
      l=0, rc=4.3438 Bohr: 2s-sz confined orbital
      l=1, rc=5.3906 Bohr: 2p-sz confined orbital
      l=0, rc=2.2969 Bohr: 2s-dz split-valence wave
      l=1, rc=2.8906 Bohr: 2p-dz split-valence wave
      l=2, rc=5.3906 Bohr: d-type Gaussian polarization

Ti-setup:
  name: Titanium
  id: d282db07e62ae71292040bf25b25ccdd
  Z: 22
  valence: 12
  core: 10
  charge: 0.0
  file: /home/wido/sw/gpaw/basis/gpaw-setups-0.9.20000/Ti.PBE.gz
  cutoffs: 1.22(comp), 2.23(filt), 1.02(core), lmax=2
  valence states:
                energy  radius
    3s(2.00)   -62.623   1.270
    4s(2.00)    -4.466   1.270
    3p(6.00)   -38.862   1.058
    4p(0.00)    -1.466   1.058
    3d(2.00)    -4.258   1.058
    *d          22.953   1.058

  LCAO basis set for Ti:
    Name: dzp
    File: /home/wido/sw/gpaw/basis/gpaw-setups-0.9.20000/Ti.dzp.basis.gz
    Number of radial functions: 11
    Number of spherical harmonics: 29
      l=0, rc=3.4375 Bohr: 3s-sz confined orbital
      l=0, rc=9.9062 Bohr: 4s-sz confined orbital
      l=1, rc=3.8906 Bohr: 3p-sz confined orbital
      l=1, rc=13.1094 Bohr: 4p-sz confined orbital
      l=2, rc=6.6250 Bohr: 3d-sz confined orbital
      l=0, rc=2.1406 Bohr: 3s-dz split-valence wave
      l=0, rc=6.0156 Bohr: 4s-dz split-valence wave
      l=1, rc=2.3125 Bohr: 3p-dz split-valence wave
      l=1, rc=8.1094 Bohr: 4p-dz split-valence wave
      l=2, rc=3.8594 Bohr: 3d-dz split-valence wave
      l=1, rc=9.9062 Bohr: p-type Gaussian polarization

V-setup:
  name: Vanadium
  id: a8354638d66c808f8c867a10b63fd727
  Z: 23
  valence: 13
  core: 10
  charge: 0.0
  file: /home/wido/sw/gpaw/basis/gpaw-setups-0.9.20000/V.PBE.gz
  cutoffs: 1.19(comp), 2.14(filt), 0.96(core), lmax=2
  valence states:
                energy  radius
    3s(2.00)   -70.222   1.254
    4s(2.00)    -4.702   1.254
    3p(6.00)   -44.043   1.281
    4p(0.00)    -1.444   1.281
    3d(3.00)    -5.164   1.169
    *d          22.047   1.169

  LCAO basis set for V:
    Name: dzp
    File: /home/wido/sw/gpaw/basis/gpaw-setups-0.9.20000/V.dzp.basis.gz
    Number of radial functions: 11
    Number of spherical harmonics: 29
      l=0, rc=3.2656 Bohr: 3s-sz confined orbital
      l=0, rc=9.5312 Bohr: 4s-sz confined orbital
      l=1, rc=3.6719 Bohr: 3p-sz confined orbital
      l=1, rc=12.8750 Bohr: 4p-sz confined orbital
      l=2, rc=6.0938 Bohr: 3d-sz confined orbital
      l=0, rc=2.0625 Bohr: 3s-dz split-valence wave
      l=0, rc=5.7656 Bohr: 4s-dz split-valence wave
      l=1, rc=2.4062 Bohr: 3p-dz split-valence wave
      l=1, rc=7.8906 Bohr: 4p-dz split-valence wave
      l=2, rc=3.6562 Bohr: 3d-dz split-valence wave
      l=1, rc=9.5312 Bohr: p-type Gaussian polarization

H-setup:
  name: Hydrogen
  id: d65de229564ff8ea4db303e23b6d1ecf
  Z: 1
  valence: 1
  core: 0
  charge: 0.0
  file: /home/wido/sw/gpaw/basis/gpaw-setups-0.9.20000/H.PBE.gz
  cutoffs: 0.48(comp), 0.85(filt), 0.53(core), lmax=2
  valence states:
                energy  radius
    1s(1.00)    -6.494   0.476
    *s          20.717   0.476
    *p           0.000   0.476

  LCAO basis set for H:
    Name: dzp
    File: /home/wido/sw/gpaw/basis/gpaw-setups-0.9.20000/H.dzp.basis.gz
    Number of radial functions: 3
    Number of spherical harmonics: 5
      l=0, rc=6.4219 Bohr: 1s-sz confined orbital
      l=0, rc=3.6094 Bohr: 1s-dz split-valence wave
      l=1, rc=6.4219 Bohr: p-type Gaussian polarization

Reference energy: -1046916.965077

Spin-paired calculation

Occupation numbers:
  Fermi-Dirac: width=0.1000 eV

Convergence criteria:
  Maximum total energy change: 0.0005 eV / electron
  Maximum integral of absolute density change: 0.0001 electrons
  Maximum integral of absolute eigenstate change: 4e-08 eV^2
  Maximum number of iterations: 333

Symmetries present (total): 1

  ( 1  0  0)
  ( 0  1  0)
  ( 0  0  1)

9 k-points: 3 x 3 x 1 Monkhorst-Pack grid
5 k-points in the irreducible part of the Brillouin zone
       k-points in crystal coordinates                weights
   0:     0.00000000    0.00000000    0.00000000          1/9
   1:     0.00000000    0.33333333    0.00000000          2/9
   2:     0.33333333   -0.33333333    0.00000000          2/9
   3:     0.33333333    0.00000000    0.00000000          2/9
   4:     0.33333333    0.33333333    0.00000000          2/9

Wave functions: Plane wave expansion
  Cutoff energy: 500.000 eV
  Number of coefficients (min, max): 70673, 70768
  Pulay-stress correction: 0.000000 eV/Ang^3 (de/decut=0.000000)
  Using FFTW library
  ScaLapack parameters: grid=1x1, blocksize=None
  Wavefunction extrapolation:
    Improved wavefunction reuse through dual PAW basis 

Eigensolver
   Davidson(niter=2, smin=None, normalize=True) 

Densities:
  Coarse grid: 54*60*125 grid
  Fine grid: 108*120*250 grid
  Total Charge: 0.000000 

Density mixing:
  Method: separate
  Backend: pulay
  Linear mixing parameter: 0.05
  Mixing with 5 old densities
  Damping of long wave oscillations: 50 

Hamiltonian:
  XC and Coulomb potentials evaluated on a 108*120*250 grid
  Using the PBE Exchange-Correlation functional
 

XC parameters: PBE with 2 nearest neighbor stencil

Memory estimate:
  Process memory now: 274.32 MiB
  Calculator: 3724.19 MiB
    Density: 10.38 MiB
      Arrays: 3.37 MiB
      Localized functions: 5.71 MiB
      Mixer: 1.30 MiB
    Hamiltonian: 2.37 MiB
      Arrays: 2.21 MiB
      XC: 0.00 MiB
      Poisson: 0.00 MiB
      vbar: 0.17 MiB
    Wavefunctions: 3711.44 MiB
      Arrays psit_nG: 3028.93 MiB
      Eigensolver: 659.23 MiB
      Projections: 3.05 MiB
      Projectors: 3.26 MiB
      PW-descriptor: 16.97 MiB

Total number of cores used: 24
Domain decomposition: 2 x 2 x 6

Number of atoms: 118
Number of atomic orbitals: 2126
Number of bands in calculation: 561
Bands to converge: occupied states only
Number of valence electrons: 928

... initialized

Initializing position-dependent things.

Density initialized from atomic densities
Creating initial wave functions:
  561 bands from LCAO basis set

                                                
                                                
                                                
                                                
                                                
                                                
                          O                     
                            O                   
              OH    O   O V   O Ti              
                 O H   O O      O    O          
                  Oi   OV    O      Ti          
           O   O            O Ti  O             
               Ti     Oi   O O                  
         O     O O  OTi    Tii   OTi            
             Tii    Ti    OOO   O               
              O   OO    O Ti   TiOi             
          O Ti   TiOi     O    O     O          
                 O     Ti     TiO               
            O   TiO      O  O  O   O Ti         
         Ti     O    O Oi    Ti     O           
              OTi          OTiO   O             
             O O    O O         O Ti            
                    Ti     Oi     O             
             Oi     O    O      Ti              
           O      Ti    Ti     O                
          Ti          O      O                  
               O                                
                                                
                                                
                                                
                                                

Positions:
   0 O      8.476572    1.911173    6.000000    ( 0.0000,  0.0000,  0.0000)
   1 O      3.305699    0.000000    6.000000    ( 0.0000,  0.0000,  0.0000)
   2 Ti     1.412752    0.000000    6.752957    ( 0.0000,  0.0000,  0.0000)
   3 Ti     6.583625    1.911173    6.752957    ( 0.0000,  0.0000,  0.0000)
   4 Ti     9.522250    1.911173    7.640878    ( 0.0000,  0.0000,  0.0000)
   5 Ti     4.351376    0.000000    7.640878    ( 0.0000,  0.0000,  0.0000)
   6 O      9.861551    0.000000    7.505914    ( 0.0000,  0.0000,  0.0000)
   7 O      4.690678    1.911173    7.505914    ( 0.0000,  0.0000,  0.0000)
   8 O      7.629303    1.911173    8.393834    ( 0.0000,  0.0000,  0.0000)
   9 O      2.458430    0.000000    8.393834    ( 0.0000,  0.0000,  0.0000)
  10 O      6.244323    0.000000    6.887921    ( 0.0000,  0.0000,  0.0000)
  11 O      1.073450    1.911173    6.887921    ( 0.0000,  0.0000,  0.0000)
  12 O      9.800172    1.918734    9.579146    ( 0.0000,  0.0000,  0.0000)
  13 O      4.633815   11.470629    9.578381    ( 0.0000,  0.0000,  0.0000)
  14 Ti     2.743084   11.473520   10.389090    ( 0.0000,  0.0000,  0.0000)
  15 Ti     7.921907    1.908176   10.393591    ( 0.0000,  0.0000,  0.0000)
  16 Ti     0.482027    1.931413   11.119352    ( 0.0000,  0.0000,  0.0000)
  17 Ti     5.639134   11.475252   11.128112    ( 0.0000,  0.0000,  0.0000)
  18 O      0.904815   11.473058   11.075505    ( 0.0000,  0.0000,  0.0000)
  19 O      6.072615    1.919359   11.088606    ( 0.0000,  0.0000,  0.0000)
  20 O      9.029620    1.921664   11.939021    ( 0.0000,  0.0000,  0.0000)
  21 O      3.852074    0.014177   11.939904    ( 0.0000,  0.0000,  0.0000)
  22 O      7.547379   11.472156   10.448116    ( 0.0000,  0.0000,  0.0000)
  23 O      2.384560    1.927464   10.447454    ( 0.0000,  0.0000,  0.0000)
  24 O      0.928604    1.910274   13.076187    ( 0.0000,  0.0000,  0.0000)
  25 O      6.093963   11.473386   13.073457    ( 0.0000,  0.0000,  0.0000)
  26 Ti     4.201754   -0.020335   14.023383    ( 0.0000,  0.0000,  0.0000)
  27 Ti     9.415926    1.869492   14.023141    ( 0.0000,  0.0000,  0.0000)
  28 Ti     1.857597    1.930148   14.597974    ( 0.0000,  0.0000,  0.0000)
  29 Ti     6.998027   11.484206   14.600985    ( 0.0000,  0.0000,  0.0000)
  30 O      2.387505   11.487304   14.818563    ( 0.0000,  0.0000,  0.0000)
  31 O      7.569528    1.878944   14.787096    ( 0.0000,  0.0000,  0.0000)
  32 O      0.229378    1.908727   15.453883    ( 0.0000,  0.0000,  0.0000)
  33 O      5.390005   11.473511   15.452604    ( 0.0000,  0.0000,  0.0000)
  34 O      9.046341   11.483758   13.939118    ( 0.0000,  0.0000,  0.0000)
  35 O      3.834591    1.923576   13.946202    ( 0.0000,  0.0000,  0.0000)
  36 O      8.476572    5.733518    6.000000    ( 0.0000,  0.0000,  0.0000)
  37 O      3.305699    3.822345    6.000000    ( 0.0000,  0.0000,  0.0000)
  38 Ti     1.412752    3.822345    6.752957    ( 0.0000,  0.0000,  0.0000)
  39 Ti     6.583625    5.733518    6.752957    ( 0.0000,  0.0000,  0.0000)
  40 Ti     9.522250    5.733518    7.640878    ( 0.0000,  0.0000,  0.0000)
  41 Ti     4.351376    3.822345    7.640878    ( 0.0000,  0.0000,  0.0000)
  42 O      9.861551    3.822345    7.505914    ( 0.0000,  0.0000,  0.0000)
  43 O      4.690678    5.733518    7.505914    ( 0.0000,  0.0000,  0.0000)
  44 O      7.629303    5.733518    8.393834    ( 0.0000,  0.0000,  0.0000)
  45 O      2.458430    3.822345    8.393834    ( 0.0000,  0.0000,  0.0000)
  46 O      6.244323    3.822345    6.887921    ( 0.0000,  0.0000,  0.0000)
  47 O      1.073450    5.733518    6.887921    ( 0.0000,  0.0000,  0.0000)
  48 O      9.805894    5.737605    9.589748    ( 0.0000,  0.0000,  0.0000)
  49 O      4.632400    3.826316    9.617175    ( 0.0000,  0.0000,  0.0000)
  50 Ti     2.773699    3.828496   10.338973    ( 0.0000,  0.0000,  0.0000)
  51 Ti     7.958256    5.740518   10.359328    ( 0.0000,  0.0000,  0.0000)
  52 Ti     0.524027    5.739122   11.168307    ( 0.0000,  0.0000,  0.0000)
  53 Ti     5.693798    3.842174   11.219315    ( 0.0000,  0.0000,  0.0000)
  54 O      0.900575    3.830370   11.082776    ( 0.0000,  0.0000,  0.0000)
  55 O      6.073943    5.740000   11.111890    ( 0.0000,  0.0000,  0.0000)
  56 O      9.061272    5.743589   11.940360    ( 0.0000,  0.0000,  0.0000)
  57 O      3.826250    3.875766   11.977704    ( 0.0000,  0.0000,  0.0000)
  58 O      7.540116    3.838016   10.464136    ( 0.0000,  0.0000,  0.0000)
  59 O      2.385716    5.739897   10.440917    ( 0.0000,  0.0000,  0.0000)
  60 O      0.999784    5.749059   13.123702    ( 0.0000,  0.0000,  0.0000)
  61 O      6.018689    3.775809   13.195027    ( 0.0000,  0.0000,  0.0000)
  62 Ti     4.165792    3.794877   13.888249    ( 0.0000,  0.0000,  0.0000)
  63 Ti     9.422184    5.756163   13.929935    ( 0.0000,  0.0000,  0.0000)
  64 Ti     1.845224    5.749457   14.775742    ( 0.0000,  0.0000,  0.0000)
  65 Ti     7.237662    3.836161   14.707978    ( 0.0000,  0.0000,  0.0000)
  66 O      2.348781    3.805275   14.783544    ( 0.0000,  0.0000,  0.0000)
  67 O      7.524695    5.749781   14.407024    ( 0.0000,  0.0000,  0.0000)
  68 O      0.151461    5.752003   15.451136    ( 0.0000,  0.0000,  0.0000)
  69 O      5.191474    3.750536   15.583183    ( 0.0000,  0.0000,  0.0000)
  70 O      9.012216    3.809829   13.964005    ( 0.0000,  0.0000,  0.0000)
  71 O      3.856352    5.761533   14.127694    ( 0.0000,  0.0000,  0.0000)
  72 O      8.476572    9.555862    6.000000    ( 0.0000,  0.0000,  0.0000)
  73 O      3.305699    7.644690    6.000000    ( 0.0000,  0.0000,  0.0000)
  74 Ti     1.412752    7.644690    6.752957    ( 0.0000,  0.0000,  0.0000)
  75 Ti     6.583625    9.555862    6.752957    ( 0.0000,  0.0000,  0.0000)
  76 Ti     9.522250    9.555862    7.640878    ( 0.0000,  0.0000,  0.0000)
  77 Ti     4.351376    7.644690    7.640878    ( 0.0000,  0.0000,  0.0000)
  78 O      9.861551    7.644690    7.505914    ( 0.0000,  0.0000,  0.0000)
  79 O      4.690678    9.555862    7.505914    ( 0.0000,  0.0000,  0.0000)
  80 O      7.629303    9.555862    8.393834    ( 0.0000,  0.0000,  0.0000)
  81 O      2.458430    7.644690    8.393834    ( 0.0000,  0.0000,  0.0000)
  82 O      6.244323    7.644690    6.887921    ( 0.0000,  0.0000,  0.0000)
  83 O      1.073450    9.555862    6.887921    ( 0.0000,  0.0000,  0.0000)
  84 O      9.798601    9.557173    9.579132    ( 0.0000,  0.0000,  0.0000)
  85 O      4.632478    7.647446    9.618341    ( 0.0000,  0.0000,  0.0000)
  86 Ti     2.776535    7.652884   10.338270    ( 0.0000,  0.0000,  0.0000)
  87 Ti     7.924915    9.572889   10.391779    ( 0.0000,  0.0000,  0.0000)
  88 Ti     0.482476    9.543445   11.120152    ( 0.0000,  0.0000,  0.0000)
  89 Ti     5.694481    7.646346   11.222486    ( 0.0000,  0.0000,  0.0000)
  90 O      0.900161    7.650076   11.081141    ( 0.0000,  0.0000,  0.0000)
  91 O      6.072324    9.558820   11.089389    ( 0.0000,  0.0000,  0.0000)
  92 O      9.030075    9.565459   11.937693    ( 0.0000,  0.0000,  0.0000)
  93 O      3.824884    7.626242   11.978786    ( 0.0000,  0.0000,  0.0000)
  94 O      7.539661    7.640797   10.465253    ( 0.0000,  0.0000,  0.0000)
  95 O      2.385404    9.551912   10.447111    ( 0.0000,  0.0000,  0.0000)
  96 O      0.928903    9.577409   13.075077    ( 0.0000,  0.0000,  0.0000)
  97 O      6.013573    7.704890   13.199219    ( 0.0000,  0.0000,  0.0000)
  98 Ti     4.161092    7.621919   13.892110    ( 0.0000,  0.0000,  0.0000)
  99 Ti     9.421230    9.634656   14.023700    ( 0.0000,  0.0000,  0.0000)
 100 Ti     1.863314    9.571142   14.594939    ( 0.0000,  0.0000,  0.0000)
 101 Ti     7.232298    7.677598   14.710703    ( 0.0000,  0.0000,  0.0000)
 102 O      2.347237    7.698429   14.788799    ( 0.0000,  0.0000,  0.0000)
 103 O      7.572899    9.619955   14.787413    ( 0.0000,  0.0000,  0.0000)
 104 O      0.230645    9.615434   15.452585    ( 0.0000,  0.0000,  0.0000)
 105 O      5.192727    7.821497   15.584671    ( 0.0000,  0.0000,  0.0000)
 106 O      9.012312    7.690124   13.964792    ( 0.0000,  0.0000,  0.0000)
 107 O      3.823559    9.590439   13.943029    ( 0.0000,  0.0000,  0.0000)
 108 V      5.862121    7.401477   17.171309    ( 0.0000,  0.0000,  0.0000)
 109 V      5.872879    4.116454   17.177131    ( 0.0000,  0.0000,  0.0000)
 110 O      7.522530    4.070902   16.581854    ( 0.0000,  0.0000,  0.0000)
 111 O      5.588572    8.519620   18.281231    ( 0.0000,  0.0000,  0.0000)
 112 O      5.217432    5.757889   17.657808    ( 0.0000,  0.0000,  0.0000)
 113 O      5.585563    2.992206   18.278989    ( 0.0000,  0.0000,  0.0000)
 114 O      2.516753    5.735811   16.917142    ( 0.0000,  0.0000,  0.0000)
 115 O      7.515674    7.420077   16.577656    ( 0.0000,  0.0000,  0.0000)
 116 H      1.859552    5.716322   17.646456    ( 0.0000,  0.0000,  0.0000)
 117 H      3.437541    5.734844   17.313711    ( 0.0000,  0.0000,  0.0000)

Unit cell:
           periodic     x           y           z      points  spacing
  1. axis:    yes   10.341746    0.000000    0.000000    54     0.1915
  2. axis:    yes   -0.000000   11.467000    0.000000    60     0.1911
  3. axis:    no     0.000000    0.000000   23.497201   125     0.1880

  Lengths:  10.341746  11.467000  23.497201
  Angles:   90.000000  90.000000  90.000000

Effective grid spacing dv^(1/3) = 0.1902

                     log10-error:    total        iterations:
           time      wfs    density  energy       fermi  poisson
iter:   1  10:26:03  -0.12   +inf  -1107.411213    8             
iter:   2  10:27:13  -1.03  -0.96  -1060.268670    2             
iter:   3  10:28:24  +0.44  -1.01  -965.849238    5             
iter:   4  10:29:34  -0.96  -1.35  -977.801788    4             
iter:   5  10:30:45  -1.08  -1.29  -995.582388    3             
iter:   6  10:31:56  -0.11  -1.25  -986.453124    4             
iter:   7  10:33:06  -0.70  -1.64  -983.647034    4             
iter:   8  10:34:17  -1.84  -1.63  -977.018025    3             
iter:   9  10:35:27  -0.94  -1.74  -970.558609    3             
iter:  10  10:36:38  -1.90  -2.11  -971.342219    3             
iter:  11  10:37:49  -2.64  -2.13  -971.537303    2             
iter:  12  10:38:59  -1.95  -2.19  -970.853410    2             
iter:  13  10:40:10  -2.67  -2.32  -970.859844    2             
iter:  14  10:41:21  -2.83  -2.39  -970.752984    3             
iter:  15  10:42:32  -2.54  -2.51  -970.713188    3             
iter:  16  10:43:42  -3.68  -2.65  -970.697338    3             
iter:  17  10:44:53  -3.69  -2.67  -970.693642    3             
iter:  18  10:46:03  -3.39  -2.77  -970.714572    1             
iter:  19  10:47:14  -3.56  -2.92  -970.700077    2             
iter:  20  10:48:25  -4.63  -3.06  -970.700241    2             
iter:  21  10:49:35  -4.18  -3.19  -970.700582    2             
iter:  22  10:50:46  -3.95  -3.33  -970.702419    2             
iter:  23  10:51:57  -3.96  -3.37  -970.699891    2             
iter:  24  10:53:07  -4.94  -3.58  -970.698500    2             
iter:  25  10:54:18  -5.47  -3.85  -970.698432    2             
iter:  26  10:55:28  -6.10  -3.89  -970.698342    2             
iter:  27  10:56:39  -5.31  -3.91  -970.698404    2             
iter:  28  10:57:50  -6.42  -4.13  -970.698338    2             
iter:  29  10:59:00  -6.26  -4.18  -970.698330    1             
iter:  30  11:00:11  -5.96  -4.19  -970.698355    2             
iter:  31  11:01:21  -6.26  -4.38  -970.698306    1             
iter:  32  11:02:32  -6.81  -4.55  -970.698308    1             
iter:  33  11:03:42  -6.84  -4.57  -970.698312    1             
iter:  34  11:04:53  -7.38  -4.72  -970.698307    1             
iter:  35  11:06:03  -7.75  -4.80  -970.698307    1             

Converged after 35 iterations.

Dipole moment: (-17.991666, -9.019623, -0.988032) |e|*Ang

Energy contributions relative to reference atoms: (reference = -1046916.965077)

Kinetic:       +706.340801
Potential:     -896.235247
External:        +0.000000
XC:            -788.592466
Entropy (-ST):   -0.000505
Local:           +7.788857
--------------------------
Free energy:   -970.698560
Extrapolated:  -970.698307

Fermi level: -0.62873

Showing only first 2 kpts
 Kpt  Band  Eigenvalues  Occupancy
  0   462     -1.69670    0.22222
  0   463     -1.69066    0.22222
  0   464      0.22451    0.00004
  0   465      0.35618    0.00001

  1   462     -1.70781    0.44444
  1   463     -1.68320    0.44443
  1   464      0.41806    0.00001
  1   465      0.49392    0.00001



Forces in eV/Ang:
  0 O    -1.89984    0.00889    1.54313
  1 O    -1.92079    0.00024    1.53701
  2 Ti    3.84291    0.00242    1.96383
  3 Ti    3.85848   -0.05389    1.98118
  4 Ti   -1.97283   -0.04546   -2.04895
  5 Ti   -1.89524    0.00028   -2.02036
  6 O     0.89832    0.00529   -0.19014
  7 O     0.85365    0.08821   -0.18238
  8 O    -0.67762    0.03114   -0.59580
  9 O    -0.69391    0.00996   -0.62712
 10 O    -0.27780   -0.00110   -0.86897
 11 O    -0.23712    0.09125   -0.86756
 12 O    -0.14774    0.00668    0.00787
 13 O    -0.16563   -0.00159    0.01644
 14 Ti    0.03552    0.00175   -0.10375
 15 Ti    0.03109    0.02553   -0.12991
 16 Ti    0.11312   -0.02799    0.09622
 17 Ti    0.09735    0.00236    0.09048
 18 O     0.12317    0.00227   -0.10034
 19 O     0.11982    0.02917   -0.06118
 20 O     0.01992   -0.00008    0.10956
 21 O     0.01106    0.00374    0.09687
 22 O    -0.01161    0.00857    0.07426
 23 O     0.00181   -0.01214    0.07866
 24 O    -0.06242   -0.01353    0.00202
 25 O    -0.04326    0.00550    0.00878
 26 Ti    0.01443    0.06807   -0.19300
 27 Ti   -0.01669    0.09430   -0.18616
 28 Ti    0.19379   -0.02854   -0.00476
 29 Ti    0.19477    0.00457   -0.01735
 30 O     0.04083    0.00919    0.15054
 31 O     0.09519    0.02119   -0.03534
 32 O     0.00006   -0.02597    0.11875
 33 O    -0.00690   -0.00633    0.10219
 34 O    -0.16064    0.00308    0.09531
 35 O    -0.28132   -0.08754    0.14871
 36 O    -1.92767    0.00085    1.55283
 37 O    -1.89391    0.00946    1.59749
 38 Ti    3.66574   -0.05809    1.81134
 39 Ti    3.78855   -0.00009    1.87511
 40 Ti   -1.80051   -0.00250   -1.87249
 41 Ti   -1.65053   -0.05894   -1.68142
 42 O     0.93653    0.04623   -0.21185
 43 O     0.85575    0.00704   -0.17297
 44 O    -0.66852    0.00999   -0.54736
 45 O    -0.68605    0.02476   -0.64758
 46 O    -0.31475    0.06682   -0.87358
 47 O    -0.23725    0.00121   -0.91157
 48 O    -0.10609    0.00267   -0.00678
 49 O    -0.11548   -0.00601    0.07458
 50 Ti   -0.00286    0.00717   -0.01623
 51 Ti   -0.05348    0.00043   -0.03583
 52 Ti    0.09791   -0.00314    0.09771
 53 Ti    0.02507   -0.01133    0.06458
 54 O     0.16243    0.00292   -0.10468
 55 O     0.18721    0.01059    0.01419
 56 O     0.08829    0.00596    0.05949
 57 O     0.00729    0.02948    0.05968
 58 O    -0.01931   -0.00608    0.21681
 59 O     0.01633    0.00370    0.03479
 60 O    -0.31801    0.00259   -0.00989
 61 O    -0.06881    0.00618   -0.14438
 62 Ti   -0.04239    0.06865    0.05388
 63 Ti    0.06551   -0.02990   -0.14489
 64 Ti    0.24077   -0.00138    0.06014
 65 Ti   -0.09505   -0.05095   -0.00934
 66 O     0.01434    0.00645   -0.10216
 67 O    -0.13832    0.01560    0.38887
 68 O    -0.07633    0.00473    0.09996
 69 O     0.19264   -0.03577   -0.04063
 70 O    -0.06149   -0.01287    0.13209
 71 O    -0.20008   -0.09364   -0.13257
 72 O    -1.90072   -0.00794    1.54270
 73 O    -1.89082   -0.00825    1.59910
 74 Ti    3.66527    0.05880    1.81187
 75 Ti    3.85919    0.05720    1.97894
 76 Ti   -1.97051    0.04332   -2.05501
 77 Ti   -1.65059    0.05417   -1.68081
 78 O     0.93685   -0.03323   -0.21116
 79 O     0.85298   -0.08149   -0.18064
 80 O    -0.68338   -0.01635   -0.60775
 81 O    -0.68375   -0.00335   -0.65350
 82 O    -0.31562   -0.06536   -0.87015
 83 O    -0.23751   -0.09224   -0.86557
 84 O    -0.12996   -0.00594    0.00241
 85 O    -0.11071    0.00726    0.07056
 86 Ti   -0.01594   -0.00870   -0.00581
 87 Ti    0.01733   -0.02832   -0.11510
 88 Ti    0.11183    0.04092    0.08697
 89 Ti    0.01252    0.00385    0.06245
 90 O     0.16144   -0.00458   -0.10396
 91 O     0.11963   -0.00222   -0.06109
 92 O     0.02503    0.00966    0.11656
 93 O     0.01148   -0.02413    0.06589
 94 O    -0.01717    0.01500    0.22006
 95 O    -0.00284    0.01852    0.07392
 96 O    -0.06437    0.02809    0.00306
 97 O    -0.05361   -0.00370   -0.16317
 98 Ti   -0.02625    0.06848    0.07507
 99 Ti   -0.01553   -0.09435   -0.18431
100 Ti    0.18763    0.02498   -0.00300
101 Ti   -0.07145    0.03845   -0.03455
102 O    -0.00409   -0.02703   -0.06823
103 O     0.10733   -0.00165   -0.03054
104 O     0.01163    0.01467    0.11756
105 O     0.17001   -0.07651   -0.05166
106 O    -0.06473    0.04081    0.14215
107 O    -0.26025   -0.06462    0.13868
108 V     0.02463    0.17755    0.10179
109 V     0.01067   -0.17237    0.09661
110 O    -0.15089    0.04064    0.17053
111 O    -0.02847   -0.13709   -0.12475
112 O     0.10246    0.01986    0.23987
113 O    -0.05374    0.20483   -0.16602
114 O     0.04662   -0.00007    0.36872
115 O    -0.18667   -0.01955    0.18641
116 H     0.26124    0.01079   -0.32650
117 H    -0.33307    0.00922   -0.16116

System changes: positions 

Initializing position-dependent things.

Density initialized from wave functions
                                                
                                                
                                                
                                                
                                                
                                                
                          O                     
                            O                   
              OH    O   O V   O Ti              
                 O H   O O      O    O          
                  Oi   OV    O      Ti          
           O   O            O Ti  O             
               Ti     Oi   O O                  
         O     O O  OTi    Tii   OTi            
             Tii    Ti    OOO   O               
              O   OO    O Ti   TiOi             
          O Ti   TiOi     O    O     O          
                 O     Ti     TiO               
            O   TiO      O  O  O   O Ti         
         Ti     O    O Oi    Ti     O           
              OTi          OTiO   O             
             O O    O O         O Ti            
                    Ti     Oi     O             
             Oi     O    O      Ti              
           O      Ti    Ti     O                
          Ti          O      O                  
               O                                
                                                
                                                
                                                
                                                

Positions:
   0 O      8.476572    1.911173    6.000000    ( 0.0000,  0.0000,  0.0000)
   1 O      3.305699    0.000000    6.000000    ( 0.0000,  0.0000,  0.0000)
   2 Ti     1.412752    0.000000    6.752957    ( 0.0000,  0.0000,  0.0000)
   3 Ti     6.583625    1.911173    6.752957    ( 0.0000,  0.0000,  0.0000)
   4 Ti     9.522250    1.911173    7.640878    ( 0.0000,  0.0000,  0.0000)
   5 Ti     4.351376    0.000000    7.640878    ( 0.0000,  0.0000,  0.0000)
   6 O      9.861551    0.000000    7.505914    ( 0.0000,  0.0000,  0.0000)
   7 O      4.690678    1.911173    7.505914    ( 0.0000,  0.0000,  0.0000)
   8 O      7.629303    1.911173    8.393834    ( 0.0000,  0.0000,  0.0000)
   9 O      2.458430    0.000000    8.393834    ( 0.0000,  0.0000,  0.0000)
  10 O      6.244323    0.000000    6.887921    ( 0.0000,  0.0000,  0.0000)
  11 O      1.073450    1.911173    6.887921    ( 0.0000,  0.0000,  0.0000)
  12 O      9.798062    1.918829    9.579259    ( 0.0000,  0.0000,  0.0000)
  13 O      4.631449   11.470606    9.578616    ( 0.0000,  0.0000,  0.0000)
  14 Ti     2.743591   11.473545   10.387608    ( 0.0000,  0.0000,  0.0000)
  15 Ti     7.922351    1.908541   10.391736    ( 0.0000,  0.0000,  0.0000)
  16 Ti     0.483643    1.931013   11.120727    ( 0.0000,  0.0000,  0.0000)
  17 Ti     5.640525   11.475286   11.129405    ( 0.0000,  0.0000,  0.0000)
  18 O      0.906574   11.473091   11.074072    ( 0.0000,  0.0000,  0.0000)
  19 O      6.074327    1.919775   11.087732    ( 0.0000,  0.0000,  0.0000)
  20 O      9.029904    1.921663   11.940586    ( 0.0000,  0.0000,  0.0000)
  21 O      3.852232    0.014230   11.941288    ( 0.0000,  0.0000,  0.0000)
  22 O      7.547213   11.472278   10.449177    ( 0.0000,  0.0000,  0.0000)
  23 O      2.384586    1.927291   10.448578    ( 0.0000,  0.0000,  0.0000)
  24 O      0.927713    1.910081   13.076216    ( 0.0000,  0.0000,  0.0000)
  25 O      6.093345   11.473465   13.073582    ( 0.0000,  0.0000,  0.0000)
  26 Ti     4.201961   -0.019363   14.020625    ( 0.0000,  0.0000,  0.0000)
  27 Ti     9.415687    1.870840   14.020482    ( 0.0000,  0.0000,  0.0000)
  28 Ti     1.860366    1.929740   14.597906    ( 0.0000,  0.0000,  0.0000)
  29 Ti     7.000810   11.484271   14.600737    ( 0.0000,  0.0000,  0.0000)
  30 O      2.388088   11.487435   14.820714    ( 0.0000,  0.0000,  0.0000)
  31 O      7.570888    1.879246   14.786591    ( 0.0000,  0.0000,  0.0000)
  32 O      0.229379    1.908356   15.455580    ( 0.0000,  0.0000,  0.0000)
  33 O      5.389907   11.473421   15.454064    ( 0.0000,  0.0000,  0.0000)
  34 O      9.044046   11.483802   13.940479    ( 0.0000,  0.0000,  0.0000)
  35 O      3.830572    1.922325   13.948327    ( 0.0000,  0.0000,  0.0000)
  36 O      8.476572    5.733518    6.000000    ( 0.0000,  0.0000,  0.0000)
  37 O      3.305699    3.822345    6.000000    ( 0.0000,  0.0000,  0.0000)
  38 Ti     1.412752    3.822345    6.752957    ( 0.0000,  0.0000,  0.0000)
  39 Ti     6.583625    5.733518    6.752957    ( 0.0000,  0.0000,  0.0000)
  40 Ti     9.522250    5.733518    7.640878    ( 0.0000,  0.0000,  0.0000)
  41 Ti     4.351376    3.822345    7.640878    ( 0.0000,  0.0000,  0.0000)
  42 O      9.861551    3.822345    7.505914    ( 0.0000,  0.0000,  0.0000)
  43 O      4.690678    5.733518    7.505914    ( 0.0000,  0.0000,  0.0000)
  44 O      7.629303    5.733518    8.393834    ( 0.0000,  0.0000,  0.0000)
  45 O      2.458430    3.822345    8.393834    ( 0.0000,  0.0000,  0.0000)
  46 O      6.244323    3.822345    6.887921    ( 0.0000,  0.0000,  0.0000)
  47 O      1.073450    5.733518    6.887921    ( 0.0000,  0.0000,  0.0000)
  48 O      9.804378    5.737643    9.589651    ( 0.0000,  0.0000,  0.0000)
  49 O      4.630751    3.826230    9.618240    ( 0.0000,  0.0000,  0.0000)
  50 Ti     2.773658    3.828598   10.338741    ( 0.0000,  0.0000,  0.0000)
  51 Ti     7.957492    5.740524   10.358816    ( 0.0000,  0.0000,  0.0000)
  52 Ti     0.525425    5.739077   11.169703    ( 0.0000,  0.0000,  0.0000)
  53 Ti     5.694156    3.842012   11.220238    ( 0.0000,  0.0000,  0.0000)
  54 O      0.902896    3.830412   11.081280    ( 0.0000,  0.0000,  0.0000)
  55 O      6.076618    5.740152   11.112093    ( 0.0000,  0.0000,  0.0000)
  56 O      9.062533    5.743674   11.941210    ( 0.0000,  0.0000,  0.0000)
  57 O      3.826354    3.876187   11.978556    ( 0.0000,  0.0000,  0.0000)
  58 O      7.539840    3.837929   10.467233    ( 0.0000,  0.0000,  0.0000)
  59 O      2.385949    5.739950   10.441415    ( 0.0000,  0.0000,  0.0000)
  60 O      0.995241    5.749096   13.123561    ( 0.0000,  0.0000,  0.0000)
  61 O      6.017706    3.775897   13.192965    ( 0.0000,  0.0000,  0.0000)
  62 Ti     4.165186    3.795858   13.889018    ( 0.0000,  0.0000,  0.0000)
  63 Ti     9.423120    5.755736   13.927865    ( 0.0000,  0.0000,  0.0000)
  64 Ti     1.848663    5.749437   14.776601    ( 0.0000,  0.0000,  0.0000)
  65 Ti     7.236304    3.835434   14.707845    ( 0.0000,  0.0000,  0.0000)
  66 O      2.348986    3.805367   14.782084    ( 0.0000,  0.0000,  0.0000)
  67 O      7.522719    5.750004   14.412579    ( 0.0000,  0.0000,  0.0000)
  68 O      0.150370    5.752071   15.452564    ( 0.0000,  0.0000,  0.0000)
  69 O      5.194226    3.750025   15.582603    ( 0.0000,  0.0000,  0.0000)
  70 O      9.011337    3.809646   13.965892    ( 0.0000,  0.0000,  0.0000)
  71 O      3.853493    5.760196   14.125800    ( 0.0000,  0.0000,  0.0000)
  72 O      8.476572    9.555862    6.000000    ( 0.0000,  0.0000,  0.0000)
  73 O      3.305699    7.644690    6.000000    ( 0.0000,  0.0000,  0.0000)
  74 Ti     1.412752    7.644690    6.752957    ( 0.0000,  0.0000,  0.0000)
  75 Ti     6.583625    9.555862    6.752957    ( 0.0000,  0.0000,  0.0000)
  76 Ti     9.522250    9.555862    7.640878    ( 0.0000,  0.0000,  0.0000)
  77 Ti     4.351376    7.644690    7.640878    ( 0.0000,  0.0000,  0.0000)
  78 O      9.861551    7.644690    7.505914    ( 0.0000,  0.0000,  0.0000)
  79 O      4.690678    9.555862    7.505914    ( 0.0000,  0.0000,  0.0000)
  80 O      7.629303    9.555862    8.393834    ( 0.0000,  0.0000,  0.0000)
  81 O      2.458430    7.644690    8.393834    ( 0.0000,  0.0000,  0.0000)
  82 O      6.244323    7.644690    6.887921    ( 0.0000,  0.0000,  0.0000)
  83 O      1.073450    9.555862    6.887921    ( 0.0000,  0.0000,  0.0000)
  84 O      9.796745    9.557089    9.579166    ( 0.0000,  0.0000,  0.0000)
  85 O      4.630897    7.647550    9.619349    ( 0.0000,  0.0000,  0.0000)
  86 Ti     2.776308    7.652760   10.338187    ( 0.0000,  0.0000,  0.0000)
  87 Ti     7.925163    9.572484   10.390134    ( 0.0000,  0.0000,  0.0000)
  88 Ti     0.484073    9.544029   11.121395    ( 0.0000,  0.0000,  0.0000)
  89 Ti     5.694659    7.646401   11.223378    ( 0.0000,  0.0000,  0.0000)
  90 O      0.902467    7.650011   11.079656    ( 0.0000,  0.0000,  0.0000)
  91 O      6.074033    9.558788   11.088517    ( 0.0000,  0.0000,  0.0000)
  92 O      9.030432    9.565597   11.939358    ( 0.0000,  0.0000,  0.0000)
  93 O      3.825048    7.625898   11.979728    ( 0.0000,  0.0000,  0.0000)
  94 O      7.539415    7.641012   10.468397    ( 0.0000,  0.0000,  0.0000)
  95 O      2.385364    9.552176   10.448167    ( 0.0000,  0.0000,  0.0000)
  96 O      0.927983    9.577810   13.075121    ( 0.0000,  0.0000,  0.0000)
  97 O      6.012807    7.704837   13.196887    ( 0.0000,  0.0000,  0.0000)
  98 Ti     4.160717    7.622897   13.893183    ( 0.0000,  0.0000,  0.0000)
  99 Ti     9.421009    9.633308   14.021067    ( 0.0000,  0.0000,  0.0000)
 100 Ti     1.865995    9.571499   14.594896    ( 0.0000,  0.0000,  0.0000)
 101 Ti     7.231277    7.678148   14.710209    ( 0.0000,  0.0000,  0.0000)
 102 O      2.347178    7.698042   14.787824    ( 0.0000,  0.0000,  0.0000)
 103 O      7.574432    9.619932   14.786976    ( 0.0000,  0.0000,  0.0000)
 104 O      0.230811    9.615643   15.454265    ( 0.0000,  0.0000,  0.0000)
 105 O      5.195155    7.820404   15.583933    ( 0.0000,  0.0000,  0.0000)
 106 O      9.011387    7.690707   13.966823    ( 0.0000,  0.0000,  0.0000)
 107 O      3.819841    9.589515   13.945011    ( 0.0000,  0.0000,  0.0000)
 108 V      5.862473    7.404013   17.172764    ( 0.0000,  0.0000,  0.0000)
 109 V      5.873032    4.113991   17.178511    ( 0.0000,  0.0000,  0.0000)
 110 O      7.520374    4.071483   16.584290    ( 0.0000,  0.0000,  0.0000)
 111 O      5.588165    8.517661   18.279449    ( 0.0000,  0.0000,  0.0000)
 112 O      5.218895    5.758173   17.661235    ( 0.0000,  0.0000,  0.0000)
 113 O      5.584796    2.995132   18.276617    ( 0.0000,  0.0000,  0.0000)
 114 O      2.517419    5.735810   16.922409    ( 0.0000,  0.0000,  0.0000)
 115 O      7.513008    7.419798   16.580319    ( 0.0000,  0.0000,  0.0000)
 116 H      1.863284    5.716476   17.641792    ( 0.0000,  0.0000,  0.0000)
 117 H      3.432783    5.734975   17.311409    ( 0.0000,  0.0000,  0.0000)

Unit cell:
           periodic     x           y           z      points  spacing
  1. axis:    yes   10.341746    0.000000    0.000000    54     0.1915
  2. axis:    yes   -0.000000   11.467000    0.000000    60     0.1911
  3. axis:    no     0.000000    0.000000   23.497201   125     0.1880

  Lengths:  10.341746  11.467000  23.497201
  Angles:   90.000000  90.000000  90.000000

Effective grid spacing dv^(1/3) = 0.1902

                     log10-error:    total        iterations:
           time      wfs    density  energy       fermi  poisson
iter:   1  11:07:42  -3.42   +inf  -970.738367    3             
iter:   2  11:08:52  -4.37  -3.39  -970.736344    2             
iter:   3  11:10:03  -3.75  -3.42  -970.729933    3             
iter:   4  11:11:14  -4.97  -3.59  -970.729341    2             
iter:   5  11:12:24  -5.09  -3.69  -970.728870    1             
iter:   6  11:13:35  -4.93  -3.86  -970.728630    2             
iter:   7  11:14:45  -5.63  -3.92  -970.728305    2             
iter:   8  11:15:56  -5.79  -4.19  -970.728306    1             
iter:   9  11:17:07  -5.98  -4.31  -970.728299    2             
iter:  10  11:18:17  -6.51  -4.35  -970.728272    2             
iter:  11  11:19:28  -7.44  -4.69  -970.728271    1             

Converged after 11 iterations.

Dipole moment: (-18.001051, -9.126989, -1.000186) |e|*Ang

Energy contributions relative to reference atoms: (reference = -1046916.965077)

Kinetic:       +707.409477
Potential:     -897.028531
External:        +0.000000
XC:            -788.884689
Entropy (-ST):   -0.000503
Local:           +7.775724
--------------------------
Free energy:   -970.728522
Extrapolated:  -970.728271

Fermi level: -0.63291

Showing only first 2 kpts
 Kpt  Band  Eigenvalues  Occupancy
  0   462     -1.70143    0.22222
  0   463     -1.69558    0.22222
  0   464      0.22054    0.00004
  0   465      0.35198    0.00001

  1   462     -1.71272    0.44444
  1   463     -1.68792    0.44443
  1   464      0.41437    0.00001
  1   465      0.48984    0.00001



Forces in eV/Ang:
  0 O    -1.90347    0.00866    1.54304
  1 O    -1.92215    0.00029    1.53740
  2 Ti    3.83983    0.00210    1.95994
  3 Ti    3.85614   -0.05293    1.97549
  4 Ti   -1.96394   -0.04386   -2.04383
  5 Ti   -1.89081   -0.00003   -2.01515
  6 O     0.89929    0.00567   -0.19204
  7 O     0.85508    0.08872   -0.18323
  8 O    -0.68766    0.03280   -0.60185
  9 O    -0.70266    0.01016   -0.63425
 10 O    -0.27757   -0.00080   -0.86859
 11 O    -0.23766    0.08939   -0.86754
 12 O    -0.11664    0.00715    0.03135
 13 O    -0.13449   -0.00105    0.03856
 14 Ti    0.05563    0.00137   -0.09124
 15 Ti    0.04837    0.02415   -0.09832
 16 Ti    0.08056   -0.02307    0.08368
 17 Ti    0.08228    0.00323    0.06931
 18 O     0.09801    0.00329   -0.08972
 19 O     0.09528    0.01363   -0.05530
 20 O     0.02292    0.00105    0.07640
 21 O     0.01478    0.00184    0.08279
 22 O    -0.00831    0.00802    0.07114
 23 O     0.00846   -0.01511    0.07576
 24 O    -0.03746   -0.01279    0.00311
 25 O    -0.03765    0.00562    0.01116
 26 Ti    0.04854    0.06474   -0.11996
 27 Ti    0.03378    0.06932   -0.11365
 28 Ti    0.06745   -0.05072    0.01956
 29 Ti    0.12733    0.00242    0.00459
 30 O     0.04832   -0.00098    0.13600
 31 O     0.06759    0.02273   -0.03037
 32 O     0.02957   -0.02085    0.03509
 33 O     0.01535   -0.00631    0.02042
 34 O    -0.15173    0.00491    0.08483
 35 O    -0.23746   -0.06827    0.12920
 36 O    -1.93229    0.00081    1.55127
 37 O    -1.89189    0.00928    1.59873
 38 Ti    3.66446   -0.05617    1.81212
 39 Ti    3.78949    0.00017    1.87154
 40 Ti   -1.79356   -0.00219   -1.86066
 41 Ti   -1.65307   -0.05836   -1.67364
 42 O     0.93718    0.04378   -0.21456
 43 O     0.85629    0.00662   -0.17258
 44 O    -0.67784    0.00999   -0.54581
 45 O    -0.68890    0.02365   -0.65375
 46 O    -0.31462    0.06517   -0.87403
 47 O    -0.23708    0.00082   -0.91242
 48 O    -0.08695    0.00236    0.00983
 49 O    -0.09729   -0.00459    0.05871
 50 Ti    0.01028    0.00932   -0.01100
 51 Ti   -0.02919    0.00133   -0.02312
 52 Ti    0.07336   -0.00193    0.07405
 53 Ti    0.01794   -0.00940    0.06261
 54 O     0.13719   -0.00136   -0.08987
 55 O     0.16056    0.00819    0.01282
 56 O     0.06616    0.00572    0.03439
 57 O    -0.00179    0.02278    0.06395
 58 O    -0.00280   -0.00358    0.19939
 59 O     0.02381    0.00241    0.03393
 60 O    -0.26081    0.00208    0.02557
 61 O    -0.06024    0.00282   -0.11643
 62 Ti   -0.01762    0.05981    0.05061
 63 Ti    0.04242   -0.02501   -0.06029
 64 Ti    0.10367   -0.00106    0.06709
 65 Ti   -0.09588   -0.01761    0.03764
 66 O     0.01276    0.02845   -0.08451
 67 O    -0.11486    0.01138    0.35189
 68 O     0.00023    0.00329    0.03489
 69 O     0.15039   -0.04638   -0.09621
 70 O    -0.06064    0.00947    0.11682
 71 O    -0.18866   -0.08292   -0.11438
 72 O    -1.90442   -0.00766    1.54245
 73 O    -1.88891   -0.00812    1.60007
 74 Ti    3.66445    0.05719    1.81316
 75 Ti    3.85703    0.05595    1.97355
 76 Ti   -1.96198    0.04142   -2.04975
 77 Ti   -1.65371    0.05397   -1.67227
 78 O     0.93737   -0.03106   -0.21404
 79 O     0.85441   -0.08156   -0.18167
 80 O    -0.69262   -0.01771   -0.61223
 81 O    -0.68641   -0.00223   -0.65927
 82 O    -0.31533   -0.06398   -0.87068
 83 O    -0.23798   -0.08997   -0.86580
 84 O    -0.10193   -0.00616    0.02634
 85 O    -0.09380    0.00624    0.05514
 86 Ti   -0.00102   -0.00992   -0.00064
 87 Ti    0.03655   -0.02665   -0.08459
 88 Ti    0.07969    0.03440    0.07579
 89 Ti    0.00560    0.00265    0.05937
 90 O     0.13668    0.00069   -0.08910
 91 O     0.09594    0.00958   -0.05538
 92 O     0.02642    0.00896    0.08171
 93 O     0.00159   -0.02146    0.06852
 94 O    -0.00049    0.01387    0.20194
 95 O     0.00440    0.02129    0.07135
 96 O    -0.03720    0.02689    0.00438
 97 O    -0.04542   -0.00037   -0.13166
 98 Ti   -0.00421    0.07600    0.06759
 99 Ti    0.03443   -0.06995   -0.11122
100 Ti    0.06316    0.04616    0.02173
101 Ti   -0.07426    0.00716    0.01473
102 O    -0.00057   -0.05778   -0.05434
103 O     0.07734   -0.00425   -0.02517
104 O     0.03810    0.00921    0.03544
105 O     0.12811   -0.06209   -0.10768
106 O    -0.06247    0.01311    0.12603
107 O    -0.21824   -0.06151    0.11955
108 V     0.01044   -0.08285   -0.01863
109 V     0.01250    0.12130   -0.05375
110 O    -0.09160    0.01300    0.13591
111 O    -0.06554    0.04684    0.04441
112 O     0.13691    0.01280    0.19821
113 O    -0.09842   -0.00974    0.03132
114 O     0.05808    0.00889   -0.15815
115 O    -0.11615    0.00689    0.14604
116 H    -0.02727    0.00198    0.01286
117 H    -0.06556    0.00878   -0.02192

System changes: positions 

Initializing position-dependent things.

Density initialized from wave functions
                                                
                                                
                                                
                                                
                                                
                                                
                          O                     
                            O                   
              OH    O   O V   O Ti              
                 O H   O O      O    O          
                  Oi   OV    O      Ti          
           O   O            O Ti  O             
               Ti     Oi   O O                  
         O     O O  OTi    Tii   OTi            
             Tii    Ti    OOO   O               
              O   OO    O Ti   TiOi             
          O Ti   TiOi     O    O     O          
                 O     Ti     TiO               
            O   TiO      O  O  O   O Ti         
         Ti     O    O Oi    Ti     O           
              OTi          OTiO   O             
             O O    O O         O Ti            
                    Ti     Oi     O             
             Oi     O    O      Ti              
           O      Ti    Ti     O                
          Ti          O      O                  
               O                                
                                                
                                                
                                                
                                                

Positions:
   0 O      8.476572    1.911173    6.000000    ( 0.0000,  0.0000,  0.0000)
   1 O      3.305699    0.000000    6.000000    ( 0.0000,  0.0000,  0.0000)
   2 Ti     1.412752    0.000000    6.752957    ( 0.0000,  0.0000,  0.0000)
   3 Ti     6.583625    1.911173    6.752957    ( 0.0000,  0.0000,  0.0000)
   4 Ti     9.522250    1.911173    7.640878    ( 0.0000,  0.0000,  0.0000)
   5 Ti     4.351376    0.000000    7.640878    ( 0.0000,  0.0000,  0.0000)
   6 O      9.861551    0.000000    7.505914    ( 0.0000,  0.0000,  0.0000)
   7 O      4.690678    1.911173    7.505914    ( 0.0000,  0.0000,  0.0000)
   8 O      7.629303    1.911173    8.393834    ( 0.0000,  0.0000,  0.0000)
   9 O      2.458430    0.000000    8.393834    ( 0.0000,  0.0000,  0.0000)
  10 O      6.244323    0.000000    6.887921    ( 0.0000,  0.0000,  0.0000)
  11 O      1.073450    1.911173    6.887921    ( 0.0000,  0.0000,  0.0000)
  12 O      9.792018    1.919163    9.580388    ( 0.0000,  0.0000,  0.0000)
  13 O      4.624554   11.470547    9.580109    ( 0.0000,  0.0000,  0.0000)
  14 Ti     2.745929   11.473616   10.383064    ( 0.0000,  0.0000,  0.0000)
  15 Ti     7.924388    1.909713   10.386557    ( 0.0000,  0.0000,  0.0000)
  16 Ti     0.487990    1.929837   11.124910    ( 0.0000,  0.0000,  0.0000)
  17 Ti     5.644681   11.475426   11.133038    ( 0.0000,  0.0000,  0.0000)
  18 O      0.911638   11.473231   11.069630    ( 0.0000,  0.0000,  0.0000)
  19 O      6.079251    1.920667   11.085005    ( 0.0000,  0.0000,  0.0000)
  20 O      9.030950    1.921696   11.944744    ( 0.0000,  0.0000,  0.0000)
  21 O      3.852879    0.014348   11.945453    ( 0.0000,  0.0000,  0.0000)
  22 O      7.546766   11.472669   10.452616    ( 0.0000,  0.0000,  0.0000)
  23 O      2.384886    1.926617   10.452234    ( 0.0000,  0.0000,  0.0000)
  24 O      0.925538    1.909460   13.076347    ( 0.0000,  0.0000,  0.0000)
  25 O      6.091463   11.473731   13.074077    ( 0.0000,  0.0000,  0.0000)
  26 Ti     4.203743   -0.016225   14.013770    ( 0.0000,  0.0000,  0.0000)
  27 Ti     9.416512    1.874533   14.013936    ( 0.0000,  0.0000,  0.0000)
  28 Ti     1.865548    1.927668   14.598460    ( 0.0000,  0.0000,  0.0000)
  29 Ti     7.007929   11.484420   14.600614    ( 0.0000,  0.0000,  0.0000)
  30 O      2.390275   11.487547   14.827423    ( 0.0000,  0.0000,  0.0000)
  31 O      7.574540    1.880306   14.785066    ( 0.0000,  0.0000,  0.0000)
  32 O      0.230328    1.907283   15.458555    ( 0.0000,  0.0000,  0.0000)
  33 O      5.390292   11.473119   15.456311    ( 0.0000,  0.0000,  0.0000)
  34 O      9.036675   11.484008   13.944686    ( 0.0000,  0.0000,  0.0000)
  35 O      3.818570    1.918771   13.954789    ( 0.0000,  0.0000,  0.0000)
  36 O      8.476572    5.733518    6.000000    ( 0.0000,  0.0000,  0.0000)
  37 O      3.305699    3.822345    6.000000    ( 0.0000,  0.0000,  0.0000)
  38 Ti     1.412752    3.822345    6.752957    ( 0.0000,  0.0000,  0.0000)
  39 Ti     6.583625    5.733518    6.752957    ( 0.0000,  0.0000,  0.0000)
  40 Ti     9.522250    5.733518    7.640878    ( 0.0000,  0.0000,  0.0000)
  41 Ti     4.351376    3.822345    7.640878    ( 0.0000,  0.0000,  0.0000)
  42 O      9.861551    3.822345    7.505914    ( 0.0000,  0.0000,  0.0000)
  43 O      4.690678    5.733518    7.505914    ( 0.0000,  0.0000,  0.0000)
  44 O      7.629303    5.733518    8.393834    ( 0.0000,  0.0000,  0.0000)
  45 O      2.458430    3.822345    8.393834    ( 0.0000,  0.0000,  0.0000)
  46 O      6.244323    3.822345    6.887921    ( 0.0000,  0.0000,  0.0000)
  47 O      1.073450    5.733518    6.887921    ( 0.0000,  0.0000,  0.0000)
  48 O      9.799935    5.737761    9.589861    ( 0.0000,  0.0000,  0.0000)
  49 O      4.625830    3.825989    9.621286    ( 0.0000,  0.0000,  0.0000)
  50 Ti     2.773944    3.829009   10.338136    ( 0.0000,  0.0000,  0.0000)
  51 Ti     7.955723    5.740573   10.357516    ( 0.0000,  0.0000,  0.0000)
  52 Ti     0.529304    5.738966   11.173601    ( 0.0000,  0.0000,  0.0000)
  53 Ti     5.695122    3.841534   11.223253    ( 0.0000,  0.0000,  0.0000)
  54 O      0.909828    3.830414   11.076766    ( 0.0000,  0.0000,  0.0000)
  55 O      6.084686    5.740580   11.112725    ( 0.0000,  0.0000,  0.0000)
  56 O      9.066032    5.743951   11.943240    ( 0.0000,  0.0000,  0.0000)
  57 O      3.826410    3.877377   11.981538    ( 0.0000,  0.0000,  0.0000)
  58 O      7.539449    3.837719   10.477009    ( 0.0000,  0.0000,  0.0000)
  59 O      2.386968    5.740085   10.443045    ( 0.0000,  0.0000,  0.0000)
  60 O      0.981919    5.749203   13.124228    ( 0.0000,  0.0000,  0.0000)
  61 O      6.014701    3.776084   13.186980    ( 0.0000,  0.0000,  0.0000)
  62 Ti     4.163961    3.798847   13.891482    ( 0.0000,  0.0000,  0.0000)
  63 Ti     9.425501    5.754468   13.923674    ( 0.0000,  0.0000,  0.0000)
  64 Ti     1.855740    5.749381   14.779691    ( 0.0000,  0.0000,  0.0000)
  65 Ti     7.231747    3.834075   14.708908    ( 0.0000,  0.0000,  0.0000)
  66 O      2.349619    3.806381   14.777781    ( 0.0000,  0.0000,  0.0000)
  67 O      7.516878    5.750612   14.429928    ( 0.0000,  0.0000,  0.0000)
  68 O      0.149189    5.752250   15.455241    ( 0.0000,  0.0000,  0.0000)
  69 O      5.202052    3.747980   15.578882    ( 0.0000,  0.0000,  0.0000)
  70 O      9.008434    3.809749   13.971698    ( 0.0000,  0.0000,  0.0000)
  71 O      3.844323    5.756076   14.120064    ( 0.0000,  0.0000,  0.0000)
  72 O      8.476572    9.555862    6.000000    ( 0.0000,  0.0000,  0.0000)
  73 O      3.305699    7.644690    6.000000    ( 0.0000,  0.0000,  0.0000)
  74 Ti     1.412752    7.644690    6.752957    ( 0.0000,  0.0000,  0.0000)
  75 Ti     6.583625    9.555862    6.752957    ( 0.0000,  0.0000,  0.0000)
  76 Ti     9.522250    9.555862    7.640878    ( 0.0000,  0.0000,  0.0000)
  77 Ti     4.351376    7.644690    7.640878    ( 0.0000,  0.0000,  0.0000)
  78 O      9.861551    7.644690    7.505914    ( 0.0000,  0.0000,  0.0000)
  79 O      4.690678    9.555862    7.505914    ( 0.0000,  0.0000,  0.0000)
  80 O      7.629303    9.555862    8.393834    ( 0.0000,  0.0000,  0.0000)
  81 O      2.458430    7.644690    8.393834    ( 0.0000,  0.0000,  0.0000)
  82 O      6.244323    7.644690    6.887921    ( 0.0000,  0.0000,  0.0000)
  83 O      1.073450    9.555862    6.887921    ( 0.0000,  0.0000,  0.0000)
  84 O      9.791450    9.556798    9.580049    ( 0.0000,  0.0000,  0.0000)
  85 O      4.626162    7.647863    9.622218    ( 0.0000,  0.0000,  0.0000)
  86 Ti     2.776027    7.652306   10.338076    ( 0.0000,  0.0000,  0.0000)
  87 Ti     7.926606    9.571188   10.385627    ( 0.0000,  0.0000,  0.0000)
  88 Ti     0.488372    9.545771   11.125182    ( 0.0000,  0.0000,  0.0000)
  89 Ti     5.695034    7.646546   11.226256    ( 0.0000,  0.0000,  0.0000)
  90 O      0.909367    7.649962   11.075178    ( 0.0000,  0.0000,  0.0000)
  91 O      6.078975    9.559061   11.085788    ( 0.0000,  0.0000,  0.0000)
  92 O      9.031670    9.566035   11.943795    ( 0.0000,  0.0000,  0.0000)
  93 O      3.825277    7.624833   11.982953    ( 0.0000,  0.0000,  0.0000)
  94 O      7.539132    7.641691   10.478305    ( 0.0000,  0.0000,  0.0000)
  95 O      2.385461    9.553148   10.451608    ( 0.0000,  0.0000,  0.0000)
  96 O      0.925787    9.579110   13.075309    ( 0.0000,  0.0000,  0.0000)
  97 O      6.010514    7.704768   13.190121    ( 0.0000,  0.0000,  0.0000)
  98 Ti     4.160173    7.626403   13.896521    ( 0.0000,  0.0000,  0.0000)
  99 Ti     9.421872    9.629594   14.014628    ( 0.0000,  0.0000,  0.0000)
 100 Ti     1.870943    9.573370   14.595547    ( 0.0000,  0.0000,  0.0000)
 101 Ti     7.227782    7.678976   14.710144    ( 0.0000,  0.0000,  0.0000)
 102 O      2.347096    7.695767   14.785017    ( 0.0000,  0.0000,  0.0000)
 103 O      7.578585    9.619770   14.785693    ( 0.0000,  0.0000,  0.0000)
 104 O      0.232215    9.616167   15.457232    ( 0.0000,  0.0000,  0.0000)
 105 O      5.201914    7.817220   15.579673    ( 0.0000,  0.0000,  0.0000)
 106 O      9.008374    7.691763   13.973081    ( 0.0000,  0.0000,  0.0000)
 107 O      3.808784    9.586535   13.951007    ( 0.0000,  0.0000,  0.0000)
 108 V      5.863192    7.404119   17.173751    ( 0.0000,  0.0000,  0.0000)
 109 V      5.873599    4.115201   17.178290    ( 0.0000,  0.0000,  0.0000)
 110 O      7.515085    4.072533   16.591308    ( 0.0000,  0.0000,  0.0000)
 111 O      5.585618    8.517030   18.278932    ( 0.0000,  0.0000,  0.0000)
 112 O      5.224885    5.758893   17.671331    ( 0.0000,  0.0000,  0.0000)
 113 O      5.580800    2.998008   18.275038    ( 0.0000,  0.0000,  0.0000)
 114 O      2.520009    5.736095   16.923075    ( 0.0000,  0.0000,  0.0000)
 115 O      7.506373    7.419715   16.587909    ( 0.0000,  0.0000,  0.0000)
 116 H      1.866476    5.716707   17.637121    ( 0.0000,  0.0000,  0.0000)
 117 H      3.425493    5.735401   17.308196    ( 0.0000,  0.0000,  0.0000)

Unit cell:
           periodic     x           y           z      points  spacing
  1. axis:    yes   10.341746    0.000000    0.000000    54     0.1915
  2. axis:    yes   -0.000000   11.467000    0.000000    60     0.1911
  3. axis:    no     0.000000    0.000000   23.497201   125     0.1880

  Lengths:  10.341746  11.467000  23.497201
  Angles:   90.000000  90.000000  90.000000

Effective grid spacing dv^(1/3) = 0.1902

                     log10-error:    total        iterations:
           time      wfs    density  energy       fermi  poisson
iter:   1  11:21:06  -2.79   +inf  -970.788625    3             
iter:   2  11:22:17  -3.72  -3.14  -970.787730    2             
iter:   3  11:23:28  -3.50  -3.16  -970.776982    3             
iter:   4  11:24:38  -4.50  -3.40  -970.776464    2             
iter:   5  11:25:48  -4.32  -3.43  -970.776619    2             
iter:   6  11:26:59  -4.56  -3.49  -970.774723    2             
iter:   7  11:28:09  -5.51  -3.80  -970.774470    2             
iter:   8  11:29:25  -5.69  -4.00  -970.774490    1             
iter:   9  11:30:36  -5.82  -4.15  -970.774520    2             
iter:  10  11:31:46  -5.72  -4.15  -970.774507    2             
iter:  11  11:32:57  -6.89  -4.37  -970.774475    2             
iter:  12  11:34:07  -6.14  -4.45  -970.774470    2             
iter:  13  11:35:18  -6.77  -4.46  -970.774460    2             
iter:  14  11:36:28  -7.41  -4.80  -970.774460    1             

Converged after 14 iterations.

Dipole moment: (-18.066090, -9.439227, -1.045167) |e|*Ang

Energy contributions relative to reference atoms: (reference = -1046916.965077)

Kinetic:       +708.194099
Potential:     -897.618321
External:        +0.000000
XC:            -789.123854
Entropy (-ST):   -0.000497
Local:           +7.773864
--------------------------
Free energy:   -970.774709
Extrapolated:  -970.774460

Fermi level: -0.64487

Showing only first 2 kpts
 Kpt  Band  Eigenvalues  Occupancy
  0   462     -1.71521    0.22222
  0   463     -1.71018    0.22222
  0   464      0.20968    0.00004
  0   465      0.34048    0.00001

  1   462     -1.72698    0.44444
  1   463     -1.70187    0.44443
  1   464      0.40406    0.00001
  1   465      0.47862    0.00001



Forces in eV/Ang:
  0 O    -1.90998    0.00784    1.54481
  1 O    -1.92322    0.00041    1.54043
  2 Ti    3.83122    0.00109    1.94978
  3 Ti    3.84842   -0.04945    1.96061
  4 Ti   -1.94121   -0.03853   -2.02307
  5 Ti   -1.88041   -0.00099   -1.99325
  6 O     0.90053    0.00681   -0.19270
  7 O     0.85873    0.08781   -0.18267
  8 O    -0.71264    0.03754   -0.61832
  9 O    -0.72611    0.01063   -0.65751
 10 O    -0.27547    0.00013   -0.86537
 11 O    -0.23822    0.08313   -0.86500
 12 O    -0.02547    0.00804    0.06582
 13 O    -0.04307    0.00034    0.06605
 14 Ti    0.10051    0.00078   -0.04818
 15 Ti    0.07507    0.01681   -0.01673
 16 Ti    0.01102   -0.01505    0.04369
 17 Ti    0.04759    0.00481    0.02212
 18 O     0.01763    0.00485   -0.05271
 19 O     0.02433   -0.01786   -0.03579
 20 O     0.03170    0.00448    0.00967
 21 O     0.02114   -0.00282    0.04818
 22 O     0.01012    0.00599    0.05611
 23 O     0.02771   -0.01845    0.06336
 24 O     0.01657   -0.01405   -0.00583
 25 O    -0.01185    0.00595    0.01123
 26 Ti    0.08898    0.05950    0.03878
 27 Ti    0.09203   -0.00048    0.02459
 28 Ti   -0.14550   -0.08783    0.07510
 29 Ti   -0.00269   -0.00213    0.04410
 30 O     0.04704   -0.02697    0.08838
 31 O     0.00101    0.03529   -0.01720
 32 O     0.06174   -0.00791   -0.10333
 33 O     0.05579   -0.00470   -0.12665
 34 O    -0.10266    0.00743    0.05095
 35 O    -0.10035   -0.01852    0.07047
 36 O    -1.94252    0.00069    1.54914
 37 O    -1.88604    0.00867    1.60252
 38 Ti    3.66244   -0.04965    1.81642
 39 Ti    3.79133    0.00102    1.86306
 40 Ti   -1.77484   -0.00116   -1.82272
 41 Ti   -1.66252   -0.05567   -1.64883
 42 O     0.93750    0.03629   -0.21762
 43 O     0.85772    0.00547   -0.16984
 44 O    -0.70274    0.01009   -0.54512
 45 O    -0.70032    0.02103   -0.67361
 46 O    -0.31221    0.05987   -0.87254
 47 O    -0.23565   -0.00034   -0.91151
 48 O    -0.02354    0.00160    0.03776
 49 O    -0.03538   -0.00107    0.01166
 50 Ti    0.04277    0.00943    0.00565
 51 Ti    0.02750    0.00373    0.00846
 52 Ti    0.01336    0.00108    0.01641
 53 Ti    0.00241   -0.01158    0.04803
 54 O     0.05447   -0.00796   -0.04144
 55 O     0.07336    0.00220    0.01270
 56 O     0.00887    0.00522   -0.00885
 57 O    -0.02459    0.00587    0.06202
 58 O     0.04554    0.00073    0.13979
 59 O     0.04153   -0.00041    0.02969
 60 O    -0.12216    0.00033    0.06547
 61 O    -0.00950   -0.00453   -0.02013
 62 Ti   -0.02274    0.05098   -0.00694
 63 Ti   -0.00344   -0.01248    0.10390
 64 Ti   -0.15199   -0.00100    0.04529
 65 Ti   -0.07772    0.02640    0.07510
 66 O    -0.00480    0.04606   -0.04298
 67 O    -0.06511    0.00056    0.24516
 68 O     0.11615   -0.00073   -0.05547
 69 O     0.07159   -0.04334   -0.17586
 70 O    -0.04863    0.05863    0.07798
 71 O    -0.12362   -0.04261   -0.06814
 72 O    -1.91118   -0.00668    1.54379
 73 O    -1.88326   -0.00769    1.60326
 74 Ti    3.66384    0.05171    1.81919
 75 Ti    3.85007    0.05154    1.95982
 76 Ti   -1.94014    0.03515   -2.02845
 77 Ti   -1.66494    0.05242   -1.64555
 78 O     0.93740   -0.02443   -0.21749
 79 O     0.85809   -0.07943   -0.18154
 80 O    -0.71553   -0.02159   -0.62442
 81 O    -0.69746    0.00036   -0.67762
 82 O    -0.31252   -0.05953   -0.87057
 83 O    -0.23830   -0.08253   -0.86382
 84 O    -0.01935   -0.00636    0.06352
 85 O    -0.03565    0.00348    0.00997
 86 Ti    0.03627   -0.00859    0.01457
 87 Ti    0.06810   -0.01861   -0.00704
 88 Ti    0.01073    0.02316    0.03819
 89 Ti   -0.00790    0.00580    0.04144
 90 O     0.05540    0.01025   -0.04068
 91 O     0.02680    0.02931   -0.03607
 92 O     0.03123    0.00670    0.00941
 93 O    -0.02369   -0.01403    0.06105
 94 O     0.04761    0.01178    0.14021
 95 O     0.02493    0.02340    0.05997
 96 O     0.02223    0.02602   -0.00349
 97 O     0.00331    0.00835   -0.02589
 98 Ti   -0.01445    0.08508    0.00251
 99 Ti    0.09007   -0.00165    0.02741
100 Ti   -0.14861    0.07687    0.07883
101 Ti   -0.06459   -0.03487    0.06347
102 O    -0.00371   -0.09349   -0.02380
103 O     0.00425   -0.02201   -0.01094
104 O     0.06462   -0.00329   -0.09920
105 O     0.05392   -0.05020   -0.17850
106 O    -0.04603   -0.05147    0.08417
107 O    -0.08766   -0.04166    0.06226
108 V    -0.09782   -0.15209    0.07297
109 V    -0.08802    0.19036    0.04918
110 O     0.05255   -0.02142    0.05864
111 O    -0.06712    0.09322    0.07839
112 O     0.12413    0.00551    0.12509
113 O    -0.09487   -0.06183    0.07377
114 O    -0.19804    0.01100   -0.48871
115 O     0.04942    0.04322    0.06120
116 H    -0.17921   -0.00251    0.17476
117 H     0.33379    0.00816    0.16063

System changes: positions 

Initializing position-dependent things.

Density initialized from wave functions
                                                
                                                
                                                
                                                
                                                
                                                
                          O                     
                            O                   
              OH    O   O V   O Ti              
                 O H   O O      O    O          
                  Oi  O V    O      Ti          
           O   O            O Ti  O             
               Ti     Oi   O O                  
         O     O O  OTi    Tii   OTi            
             Tii    Ti    OOO   O               
              O   OO    O Ti   TiOi             
          O Ti   TiOi     O    O     O          
                 O     Ti     TiO               
            O   TiO      O  O  O   O Ti         
         Ti     O    O Oi    Ti     O           
              OTi          OTiO   O             
             O O    O O         O Ti            
                    Ti     Oi     O             
             Oi     O    O      Ti              
           O      Ti    Ti     O                
          Ti          O      O                  
               O                                
                                                
                                                
                                                
                                                

Positions:
   0 O      8.476572    1.911173    6.000000    ( 0.0000,  0.0000,  0.0000)
   1 O      3.305699    0.000000    6.000000    ( 0.0000,  0.0000,  0.0000)
   2 Ti     1.412752    0.000000    6.752957    ( 0.0000,  0.0000,  0.0000)
   3 Ti     6.583625    1.911173    6.752957    ( 0.0000,  0.0000,  0.0000)
   4 Ti     9.522250    1.911173    7.640878    ( 0.0000,  0.0000,  0.0000)
   5 Ti     4.351376    0.000000    7.640878    ( 0.0000,  0.0000,  0.0000)
   6 O      9.861551    0.000000    7.505914    ( 0.0000,  0.0000,  0.0000)
   7 O      4.690678    1.911173    7.505914    ( 0.0000,  0.0000,  0.0000)
   8 O      7.629303    1.911173    8.393834    ( 0.0000,  0.0000,  0.0000)
   9 O      2.458430    0.000000    8.393834    ( 0.0000,  0.0000,  0.0000)
  10 O      6.244323    0.000000    6.887921    ( 0.0000,  0.0000,  0.0000)
  11 O      1.073450    1.911173    6.887921    ( 0.0000,  0.0000,  0.0000)
  12 O      9.787515    1.919533    9.582272    ( 0.0000,  0.0000,  0.0000)
  13 O      4.619156   11.470514    9.582233    ( 0.0000,  0.0000,  0.0000)
  14 Ti     2.749320   11.473679   10.379156    ( 0.0000,  0.0000,  0.0000)
  15 Ti     7.927078    1.910799   10.382764    ( 0.0000,  0.0000,  0.0000)
  16 Ti     0.491163    1.928755   11.128504    ( 0.0000,  0.0000,  0.0000)
  17 Ti     5.648363   11.475606   11.135912    ( 0.0000,  0.0000,  0.0000)
  18 O      0.915323   11.473412   11.065704    ( 0.0000,  0.0000,  0.0000)
  19 O      6.082989    1.920967   11.082527    ( 0.0000,  0.0000,  0.0000)
  20 O      9.032237    1.921801   11.947779    ( 0.0000,  0.0000,  0.0000)
  21 O      3.853691    0.014376   11.949145    ( 0.0000,  0.0000,  0.0000)
  22 O      7.546680   11.473039   10.455937    ( 0.0000,  0.0000,  0.0000)
  23 O      2.385601    1.925839   10.455840    ( 0.0000,  0.0000,  0.0000)
  24 O      0.924346    1.908775   13.076293    ( 0.0000,  0.0000,  0.0000)
  25 O      6.090013   11.474019   13.074597    ( 0.0000,  0.0000,  0.0000)
  26 Ti     4.206426   -0.013013   14.009772    ( 0.0000,  0.0000,  0.0000)
  27 Ti     9.418531    1.876995   14.009828    ( 0.0000,  0.0000,  0.0000)
  28 Ti     1.866721    1.924727   14.600184    ( 0.0000,  0.0000,  0.0000)
  29 Ti     7.012808   11.484484   14.601285    ( 0.0000,  0.0000,  0.0000)
  30 O      2.392545   11.487130   14.833527    ( 0.0000,  0.0000,  0.0000)
  31 O      7.577031    1.881691   14.783726    ( 0.0000,  0.0000,  0.0000)
  32 O      0.231963    1.906414   15.458905    ( 0.0000,  0.0000,  0.0000)
  33 O      5.391520   11.472835   15.455702    ( 0.0000,  0.0000,  0.0000)
  34 O      9.029913   11.484275   13.948430    ( 0.0000,  0.0000,  0.0000)
  35 O      3.808726    1.916039   13.960404    ( 0.0000,  0.0000,  0.0000)
  36 O      8.476572    5.733518    6.000000    ( 0.0000,  0.0000,  0.0000)
  37 O      3.305699    3.822345    6.000000    ( 0.0000,  0.0000,  0.0000)
  38 Ti     1.412752    3.822345    6.752957    ( 0.0000,  0.0000,  0.0000)
  39 Ti     6.583625    5.733518    6.752957    ( 0.0000,  0.0000,  0.0000)
  40 Ti     9.522250    5.733518    7.640878    ( 0.0000,  0.0000,  0.0000)
  41 Ti     4.351376    3.822345    7.640878    ( 0.0000,  0.0000,  0.0000)
  42 O      9.861551    3.822345    7.505914    ( 0.0000,  0.0000,  0.0000)
  43 O      4.690678    5.733518    7.505914    ( 0.0000,  0.0000,  0.0000)
  44 O      7.629303    5.733518    8.393834    ( 0.0000,  0.0000,  0.0000)
  45 O      2.458430    3.822345    8.393834    ( 0.0000,  0.0000,  0.0000)
  46 O      6.244323    3.822345    6.887921    ( 0.0000,  0.0000,  0.0000)
  47 O      1.073450    5.733518    6.887921    ( 0.0000,  0.0000,  0.0000)
  48 O      9.796555    5.737869    9.590647    ( 0.0000,  0.0000,  0.0000)
  49 O      4.621915    3.825807    9.623532    ( 0.0000,  0.0000,  0.0000)
  50 Ti     2.774914    3.829442   10.337840    ( 0.0000,  0.0000,  0.0000)
  51 Ti     7.955015    5.740675   10.356791    ( 0.0000,  0.0000,  0.0000)
  52 Ti     0.532171    5.738911   11.176536    ( 0.0000,  0.0000,  0.0000)
  53 Ti     5.695826    3.840978   11.226133    ( 0.0000,  0.0000,  0.0000)
  54 O      0.915439    3.830283   11.072999    ( 0.0000,  0.0000,  0.0000)
  55 O      6.091404    5.740909   11.113394    ( 0.0000,  0.0000,  0.0000)
  56 O      9.068549    5.744233   11.944511    ( 0.0000,  0.0000,  0.0000)
  57 O      3.826000    3.878287   11.984641    ( 0.0000,  0.0000,  0.0000)
  58 O      7.540036    3.837585   10.486103    ( 0.0000,  0.0000,  0.0000)
  59 O      2.388408    5.740170   10.444680    ( 0.0000,  0.0000,  0.0000)
  60 O      0.970686    5.749280   13.125717    ( 0.0000,  0.0000,  0.0000)
  61 O      6.012590    3.776131   13.182654    ( 0.0000,  0.0000,  0.0000)
  62 Ti     4.162510    3.801834   13.892865    ( 0.0000,  0.0000,  0.0000)
  63 Ti     9.427084    5.753385   13.922587    ( 0.0000,  0.0000,  0.0000)
  64 Ti     1.858024    5.749323   14.782480    ( 0.0000,  0.0000,  0.0000)
  65 Ti     7.227318    3.833515   14.710742    ( 0.0000,  0.0000,  0.0000)
  66 O      2.349916    3.807786   14.774086    ( 0.0000,  0.0000,  0.0000)
  67 O      7.511722    5.751032   14.446060    ( 0.0000,  0.0000,  0.0000)
  68 O      0.150269    5.752356   15.456265    ( 0.0000,  0.0000,  0.0000)
  69 O      5.208724    3.745902   15.573355    ( 0.0000,  0.0000,  0.0000)
  70 O      9.005619    3.810865   13.977035    ( 0.0000,  0.0000,  0.0000)
  71 O      3.835995    5.752561   14.114954    ( 0.0000,  0.0000,  0.0000)
  72 O      8.476572    9.555862    6.000000    ( 0.0000,  0.0000,  0.0000)
  73 O      3.305699    7.644690    6.000000    ( 0.0000,  0.0000,  0.0000)
  74 Ti     1.412752    7.644690    6.752957    ( 0.0000,  0.0000,  0.0000)
  75 Ti     6.583625    9.555862    6.752957    ( 0.0000,  0.0000,  0.0000)
  76 Ti     9.522250    9.555862    7.640878    ( 0.0000,  0.0000,  0.0000)
  77 Ti     4.351376    7.644690    7.640878    ( 0.0000,  0.0000,  0.0000)
  78 O      9.861551    7.644690    7.505914    ( 0.0000,  0.0000,  0.0000)
  79 O      4.690678    9.555862    7.505914    ( 0.0000,  0.0000,  0.0000)
  80 O      7.629303    9.555862    8.393834    ( 0.0000,  0.0000,  0.0000)
  81 O      2.458430    7.644690    8.393834    ( 0.0000,  0.0000,  0.0000)
  82 O      6.244323    7.644690    6.887921    ( 0.0000,  0.0000,  0.0000)
  83 O      1.073450    9.555862    6.887921    ( 0.0000,  0.0000,  0.0000)
  84 O      9.787561    9.556488    9.581730    ( 0.0000,  0.0000,  0.0000)
  85 O      4.622366    7.648137    9.624315    ( 0.0000,  0.0000,  0.0000)
  86 Ti     2.776497    7.651857   10.338273    ( 0.0000,  0.0000,  0.0000)
  87 Ti     7.928768    9.569986   10.382460    ( 0.0000,  0.0000,  0.0000)
  88 Ti     0.491506    9.547384   11.128404    ( 0.0000,  0.0000,  0.0000)
  89 Ti     5.695155    7.646769   11.228921    ( 0.0000,  0.0000,  0.0000)
  90 O      0.914974    7.650104   11.071448    ( 0.0000,  0.0000,  0.0000)
  91 O      6.082768    9.559748   11.083305    ( 0.0000,  0.0000,  0.0000)
  92 O      9.033078    9.566451   11.947010    ( 0.0000,  0.0000,  0.0000)
  93 O      3.825000    7.623861   11.986198    ( 0.0000,  0.0000,  0.0000)
  94 O      7.539827    7.642366   10.487495    ( 0.0000,  0.0000,  0.0000)
  95 O      2.385987    9.554215   10.455008    ( 0.0000,  0.0000,  0.0000)
  96 O      0.924681    9.580469   13.075337    ( 0.0000,  0.0000,  0.0000)
  97 O      6.009115    7.704874   13.185165    ( 0.0000,  0.0000,  0.0000)
  98 Ti     4.159339    7.630288   13.898677    ( 0.0000,  0.0000,  0.0000)
  99 Ti     9.423878    9.627079   14.010640    ( 0.0000,  0.0000,  0.0000)
 100 Ti     1.871892    9.575962   14.597406    ( 0.0000,  0.0000,  0.0000)
 101 Ti     7.224298    7.679014   14.711022    ( 0.0000,  0.0000,  0.0000)
 102 O      2.346936    7.692658   14.782676    ( 0.0000,  0.0000,  0.0000)
 103 O      7.581473    9.619225   14.784630    ( 0.0000,  0.0000,  0.0000)
 104 O      0.234215    9.616465   15.457652    ( 0.0000,  0.0000,  0.0000)
 105 O      5.207555    7.814081   15.573764    ( 0.0000,  0.0000,  0.0000)
 106 O      9.005536    7.691554   13.978834    ( 0.0000,  0.0000,  0.0000)
 107 O      3.799802    9.583802   13.956160    ( 0.0000,  0.0000,  0.0000)
 108 V      5.861670    7.403239   17.176971    ( 0.0000,  0.0000,  0.0000)
 109 V      5.872052    4.117404   17.180531    ( 0.0000,  0.0000,  0.0000)
 110 O      7.512456    4.072960   16.597143    ( 0.0000,  0.0000,  0.0000)
 111 O      5.582961    8.517009   18.278795    ( 0.0000,  0.0000,  0.0000)
 112 O      5.230879    5.759512   17.680522    ( 0.0000,  0.0000,  0.0000)
 113 O      5.576736    3.000338   18.273905    ( 0.0000,  0.0000,  0.0000)
 114 O      2.517265    5.736423   16.917712    ( 0.0000,  0.0000,  0.0000)
 115 O      7.502759    7.420352   16.594198    ( 0.0000,  0.0000,  0.0000)
 116 H      1.867149    5.716873   17.635003    ( 0.0000,  0.0000,  0.0000)
 117 H      3.425802    5.735838   17.308432    ( 0.0000,  0.0000,  0.0000)

Unit cell:
           periodic     x           y           z      points  spacing
  1. axis:    yes   10.341746    0.000000    0.000000    54     0.1915
  2. axis:    yes   -0.000000   11.467000    0.000000    60     0.1911
  3. axis:    no     0.000000    0.000000   23.497201   125     0.1880

  Lengths:  10.341746  11.467000  23.497201
  Angles:   90.000000  90.000000  90.000000

Effective grid spacing dv^(1/3) = 0.1902

                     log10-error:    total        iterations:
           time      wfs    density  energy       fermi  poisson
iter:   1  11:38:07  -3.01   +inf  -970.802859    2             
iter:   2  11:39:17  -3.89  -3.29  -970.803714    2             
iter:   3  11:40:28  -4.06  -3.31  -970.799939    2             
iter:   4  11:41:38  -4.46  -3.57  -970.800183    2             
iter:   5  11:42:49  -4.48  -3.62  -970.800056    2             
iter:   6  11:43:59  -5.00  -3.70  -970.799362    2             
iter:   7  11:45:10  -5.61  -4.07  -970.799335    1             
iter:   8  11:46:20  -6.01  -4.12  -970.799297    2             
iter:   9  11:47:31  -6.48  -4.28  -970.799311    2             
iter:  10  11:48:41  -5.80  -4.30  -970.799299    2             
iter:  11  11:49:57  -6.84  -4.53  -970.799281    1             
iter:  12  11:51:08  -7.00  -4.64  -970.799278    1             
iter:  13  11:52:18  -6.88  -4.66  -970.799278    1             
iter:  14  11:53:29  -7.34  -4.94  -970.799278    1             
iter:  15  11:54:40  -8.21  -5.02  -970.799278    1             

Converged after 15 iterations.

Dipole moment: (-18.147953, -9.702817, -1.045411) |e|*Ang

Energy contributions relative to reference atoms: (reference = -1046916.965077)

Kinetic:       +708.989775
Potential:     -898.273754
External:        +0.000000
XC:            -789.291843
Entropy (-ST):   -0.000488
Local:           +7.776788
--------------------------
Free energy:   -970.799522
Extrapolated:  -970.799278

Fermi level: -0.64712

Showing only first 2 kpts
 Kpt  Band  Eigenvalues  Occupancy
  0   462     -1.72007    0.22222
  0   463     -1.71605    0.22222
  0   464      0.20970    0.00004
  0   465      0.33946    0.00001

  1   462     -1.73206    0.44444
  1   463     -1.70717    0.44443
  1   464      0.40432    0.00001
  1   465      0.47766    0.00001



Forces in eV/Ang:
  0 O    -1.91172    0.00707    1.54693
  1 O    -1.92169    0.00052    1.54330
  2 Ti    3.82623    0.00021    1.94562
  3 Ti    3.84219   -0.04557    1.95336
  4 Ti   -1.92696   -0.03343   -2.00165
  5 Ti   -1.87532   -0.00177   -1.97155
  6 O     0.90064    0.00780   -0.19110
  7 O     0.86160    0.08419   -0.18165
  8 O    -0.72864    0.04158   -0.63254
  9 O    -0.74234    0.01099   -0.68273
 10 O    -0.27454    0.00100   -0.86310
 11 O    -0.24002    0.07694   -0.86298
 12 O     0.03269    0.00910    0.05951
 13 O     0.01985    0.00139    0.05534
 14 Ti    0.11328    0.00100    0.00572
 15 Ti    0.07261    0.01217    0.04742
 16 Ti   -0.01664   -0.01228    0.00915
 17 Ti    0.02468    0.00538    0.00293
 18 O    -0.04229    0.00492   -0.02333
 19 O    -0.02599   -0.02842   -0.02071
 20 O     0.03857    0.00605   -0.01491
 21 O     0.02822   -0.00647    0.02344
 22 O     0.03147    0.00460    0.04503
 23 O     0.04347   -0.01630    0.05462
 24 O     0.03977   -0.02012   -0.00649
 25 O     0.01028    0.00638    0.01627
 26 Ti    0.07262    0.05070    0.10032
 27 Ti    0.05586   -0.02818    0.07038
 28 Ti   -0.17319   -0.07579    0.07961
 29 Ti   -0.05099   -0.00322    0.03468
 30 O     0.02478   -0.04250    0.06730
 31 O    -0.03585    0.03168   -0.00361
 32 O     0.04091   -0.00374   -0.11888
 33 O     0.06377   -0.00279   -0.15408
 34 O    -0.04341    0.00638    0.03226
 35 O     0.00452   -0.00270    0.03595
 36 O    -1.94789    0.00059    1.54714
 37 O    -1.88205    0.00797    1.60355
 38 Ti    3.66483   -0.04349    1.82397
 39 Ti    3.79273    0.00174    1.86104
 40 Ti   -1.76352   -0.00030   -1.78969
 41 Ti   -1.67301   -0.05196   -1.62577
 42 O     0.93645    0.02920   -0.21809
 43 O     0.85906    0.00461   -0.16812
 44 O    -0.72071    0.01029   -0.55009
 45 O    -0.71050    0.01871   -0.69408
 46 O    -0.31006    0.05467   -0.87265
 47 O    -0.23571   -0.00135   -0.91143
 48 O     0.02295    0.00117    0.03750
 49 O     0.01403    0.00174   -0.02036
 50 Ti    0.05540    0.00331    0.02365
 51 Ti    0.06110    0.00487    0.04576
 52 Ti   -0.02655    0.00241   -0.01055
 53 Ti    0.00293   -0.01423    0.04339
 54 O    -0.00916   -0.00781   -0.00342
 55 O     0.00088   -0.00075    0.01168
 56 O    -0.03012    0.00528   -0.02120
 57 O    -0.03472   -0.00796    0.03761
 58 O     0.07905   -0.00162    0.08798
 59 O     0.05353   -0.00159    0.03012
 60 O    -0.04137   -0.00104    0.05286
 61 O     0.03122   -0.00836    0.03437
 62 Ti   -0.05305    0.05739   -0.04324
 63 Ti   -0.04969   -0.00456    0.17215
 64 Ti   -0.22037   -0.00248    0.00640
 65 Ti   -0.06862    0.04871    0.09961
 66 O    -0.03370    0.01806   -0.01386
 67 O    -0.03188   -0.00463    0.14742
 68 O     0.11370   -0.00372   -0.05652
 69 O     0.06076   -0.01749   -0.11863
 70 O    -0.02289    0.07151    0.05653
 71 O    -0.05929   -0.00879   -0.03947
 72 O    -1.91307   -0.00577    1.54551
 73 O    -1.87928   -0.00712    1.60388
 74 Ti    3.66744    0.04646    1.82839
 75 Ti    3.84472    0.04688    1.95375
 76 Ti   -1.92682    0.02927   -2.00664
 77 Ti   -1.67722    0.04966   -1.62164
 78 O     0.93609   -0.01806   -0.21828
 79 O     0.86091   -0.07483   -0.18081
 80 O    -0.72973   -0.02480   -0.63514
 81 O    -0.70727    0.00258   -0.69634
 82 O    -0.31009   -0.05512   -0.87112
 83 O    -0.23988   -0.07531   -0.86233
 84 O     0.03276   -0.00687    0.06032
 85 O     0.01139    0.00142   -0.02050
 86 Ti    0.05288   -0.00210    0.02991
 87 Ti    0.06934   -0.01271    0.05209
 88 Ti   -0.01674    0.01901    0.00468
 89 Ti   -0.00475    0.00929    0.03394
 90 O    -0.00706    0.01268   -0.00242
 91 O    -0.02272    0.03093   -0.02086
 92 O     0.03607    0.00603   -0.01759
 93 O    -0.03490   -0.00682    0.03356
 94 O     0.08037    0.01427    0.08662
 95 O     0.04127    0.01991    0.05234
 96 O     0.04813    0.02972   -0.00344
 97 O     0.04117    0.01442    0.03751
 98 Ti   -0.04980    0.06948   -0.04176
 99 Ti    0.05208    0.02730    0.07260
100 Ti   -0.17640    0.05945    0.08541
101 Ti   -0.06044   -0.05956    0.09549
102 O    -0.02126   -0.07302   -0.00347
103 O    -0.03668   -0.02441    0.00301
104 O     0.04094   -0.00694   -0.11268
105 O     0.04277   -0.06112   -0.11915
106 O    -0.01840   -0.07408    0.06160
107 O     0.01173   -0.01097    0.02956
108 V    -0.05495   -0.13923   -0.03294
109 V    -0.04387    0.17927   -0.06021
110 O     0.05558   -0.03999    0.05916
111 O    -0.08177    0.14344    0.12744
112 O     0.06801    0.00127    0.10649
113 O    -0.10673   -0.12110    0.13697
114 O     0.04406    0.00815   -0.32128
115 O     0.06649    0.06435    0.05739
116 H    -0.20832   -0.00265    0.15999
117 H     0.14702    0.00898    0.05264

System changes: positions 

Initializing position-dependent things.

Density initialized from wave functions
                                                
                                                
                                                
                                                
                                                
                                                
                          O                     
                            O                   
              OH    O   O V   O Ti              
                 OTH   O O      O    O          
                  O   O V    O      Ti          
           O   O            O Ti  O             
               Ti     Oi   O O                  
         O     O O  OTi    Tii   OTi            
             Tii    Ti    OOO   O               
              O   OO    O Ti   TiOi             
          O Ti   TiOi     O    O     O          
                 O     Ti     TiO               
            O   TiO      O  O  O   O Ti         
[...]
   4 Ti     9.522250    1.911173    7.640878    ( 0.0000,  0.0000,  0.0000)
   5 Ti     4.351376    0.000000    7.640878    ( 0.0000,  0.0000,  0.0000)
   6 O      9.861551    0.000000    7.505914    ( 0.0000,  0.0000,  0.0000)
   7 O      4.690678    1.911173    7.505914    ( 0.0000,  0.0000,  0.0000)
   8 O      7.629303    1.911173    8.393834    ( 0.0000,  0.0000,  0.0000)
   9 O      2.458430    0.000000    8.393834    ( 0.0000,  0.0000,  0.0000)
  10 O      6.244323    0.000000    6.887921    ( 0.0000,  0.0000,  0.0000)
  11 O      1.073450    1.911173    6.887921    ( 0.0000,  0.0000,  0.0000)
  12 O      9.796285    1.927033    9.602639    ( 0.0000,  0.0000,  0.0000)
  13 O      4.629457   11.479279    9.605101    ( 0.0000,  0.0000,  0.0000)
  14 Ti     2.780726   11.481154   10.404118    ( 0.0000,  0.0000,  0.0000)
  15 Ti     7.954934    1.920501   10.403844    ( 0.0000,  0.0000,  0.0000)
  16 Ti     0.507321    1.935876   11.156034    ( 0.0000,  0.0000,  0.0000)
  17 Ti     5.660998   11.482084   11.169286    ( 0.0000,  0.0000,  0.0000)
  18 O      0.923877   11.481554   11.068394    ( 0.0000,  0.0000,  0.0000)
  19 O      6.093945    1.927373   11.094960    ( 0.0000,  0.0000,  0.0000)
  20 O      9.045778    1.938101   11.984664    ( 0.0000,  0.0000,  0.0000)
  21 O      3.867294    0.019264   11.990119    ( 0.0000,  0.0000,  0.0000)
  22 O      7.574212   11.481252   10.502674    ( 0.0000,  0.0000,  0.0000)
  23 O      2.409348    1.931329   10.497352    ( 0.0000,  0.0000,  0.0000)
  24 O      0.922889    1.904450   13.114467    ( 0.0000,  0.0000,  0.0000)
  25 O      6.086548   11.493703   13.121913    ( 0.0000,  0.0000,  0.0000)
  26 Ti     4.217872    0.023903   14.080100    ( 0.0000,  0.0000,  0.0000)
  27 Ti     9.404729    1.905936   14.054577    ( 0.0000,  0.0000,  0.0000)
  28 Ti     1.853496    1.926977   14.644840    ( 0.0000,  0.0000,  0.0000)
  29 Ti     7.015984   11.497009   14.646388    ( 0.0000,  0.0000,  0.0000)
  30 O      2.380043   11.492446   14.871041    ( 0.0000,  0.0000,  0.0000)
  31 O      7.549199    1.906180   14.822508    ( 0.0000,  0.0000,  0.0000)
  32 O      0.222579    1.932004   15.496002    ( 0.0000,  0.0000,  0.0000)
  33 O      5.401783   11.491063   15.511456    ( 0.0000,  0.0000,  0.0000)
  34 O      9.023060   11.498409   14.069206    ( 0.0000,  0.0000,  0.0000)
  35 O      3.823677    1.930601   14.086052    ( 0.0000,  0.0000,  0.0000)
  36 O      8.476572    5.733518    6.000000    ( 0.0000,  0.0000,  0.0000)
  37 O      3.305699    3.822345    6.000000    ( 0.0000,  0.0000,  0.0000)
  38 Ti     1.412752    3.822345    6.752957    ( 0.0000,  0.0000,  0.0000)
  39 Ti     6.583625    5.733518    6.752957    ( 0.0000,  0.0000,  0.0000)
  40 Ti     9.522250    5.733518    7.640878    ( 0.0000,  0.0000,  0.0000)
  41 Ti     4.351376    3.822345    7.640878    ( 0.0000,  0.0000,  0.0000)
  42 O      9.861551    3.822345    7.505914    ( 0.0000,  0.0000,  0.0000)
  43 O      4.690678    5.733518    7.505914    ( 0.0000,  0.0000,  0.0000)
  44 O      7.629303    5.733518    8.393834    ( 0.0000,  0.0000,  0.0000)
  45 O      2.458430    3.822345    8.393834    ( 0.0000,  0.0000,  0.0000)
  46 O      6.244323    3.822345    6.887921    ( 0.0000,  0.0000,  0.0000)
  47 O      1.073450    5.733518    6.887921    ( 0.0000,  0.0000,  0.0000)
  48 O      9.800052    5.744119    9.614586    ( 0.0000,  0.0000,  0.0000)
  49 O      4.630781    3.839656    9.641032    ( 0.0000,  0.0000,  0.0000)
  50 Ti     2.798649    3.839445   10.344893    ( 0.0000,  0.0000,  0.0000)
  51 Ti     7.972011    5.748545   10.389815    ( 0.0000,  0.0000,  0.0000)
  52 Ti     0.522484    5.746081   11.208985    ( 0.0000,  0.0000,  0.0000)
  53 Ti     5.714550    3.840293   11.272732    ( 0.0000,  0.0000,  0.0000)
  54 O      0.922976    3.838608   11.083758    ( 0.0000,  0.0000,  0.0000)
  55 O      6.099869    5.749136   11.135314    ( 0.0000,  0.0000,  0.0000)
  56 O      9.051258    5.755349   11.988513    ( 0.0000,  0.0000,  0.0000)
  57 O      3.835571    3.849647   12.011305    ( 0.0000,  0.0000,  0.0000)
  58 O      7.562885    3.840939   10.519552    ( 0.0000,  0.0000,  0.0000)
  59 O      2.410870    5.746196   10.499630    ( 0.0000,  0.0000,  0.0000)
  60 O      0.924243    5.755941   13.166832    ( 0.0000,  0.0000,  0.0000)
  61 O      6.018643    3.803318   13.231710    ( 0.0000,  0.0000,  0.0000)
  62 Ti     4.144515    3.849363   13.911971    ( 0.0000,  0.0000,  0.0000)
  63 Ti     9.400238    5.764938   14.016033    ( 0.0000,  0.0000,  0.0000)
  64 Ti     1.840069    5.757803   14.793654    ( 0.0000,  0.0000,  0.0000)
  65 Ti     7.182304    3.843492   14.833043    ( 0.0000,  0.0000,  0.0000)
  66 O      2.329722    3.821660   14.786954    ( 0.0000,  0.0000,  0.0000)
  67 O      7.499231    5.767527   14.636983    ( 0.0000,  0.0000,  0.0000)
  68 O      0.149762    5.767296   15.519213    ( 0.0000,  0.0000,  0.0000)
  69 O      5.205686    3.880992   15.604749    ( 0.0000,  0.0000,  0.0000)
  70 O      8.980735    3.837391   14.092352    ( 0.0000,  0.0000,  0.0000)
  71 O      3.791972    5.759464   14.093573    ( 0.0000,  0.0000,  0.0000)
  72 O      8.476572    9.555862    6.000000    ( 0.0000,  0.0000,  0.0000)
  73 O      3.305699    7.644690    6.000000    ( 0.0000,  0.0000,  0.0000)
  74 Ti     1.412752    7.644690    6.752957    ( 0.0000,  0.0000,  0.0000)
  75 Ti     6.583625    9.555862    6.752957    ( 0.0000,  0.0000,  0.0000)
  76 Ti     9.522250    9.555862    7.640878    ( 0.0000,  0.0000,  0.0000)
  77 Ti     4.351376    7.644690    7.640878    ( 0.0000,  0.0000,  0.0000)
  78 O      9.861551    7.644690    7.505914    ( 0.0000,  0.0000,  0.0000)
  79 O      4.690678    9.555862    7.505914    ( 0.0000,  0.0000,  0.0000)
  80 O      7.629303    9.555862    8.393834    ( 0.0000,  0.0000,  0.0000)
  81 O      2.458430    7.644690    8.393834    ( 0.0000,  0.0000,  0.0000)
  82 O      6.244323    7.644690    6.887921    ( 0.0000,  0.0000,  0.0000)
  83 O      1.073450    9.555862    6.887921    ( 0.0000,  0.0000,  0.0000)
  84 O      9.796550    9.561949    9.602367    ( 0.0000,  0.0000,  0.0000)
  85 O      4.630628    7.650703    9.640384    ( 0.0000,  0.0000,  0.0000)
  86 Ti     2.797956    7.654609   10.344253    ( 0.0000,  0.0000,  0.0000)
  87 Ti     7.955100    9.577664   10.403253    ( 0.0000,  0.0000,  0.0000)
  88 Ti     0.508168    9.557080   11.155400    ( 0.0000,  0.0000,  0.0000)
  89 Ti     5.714884    7.657993   11.271311    ( 0.0000,  0.0000,  0.0000)
  90 O      0.922754    7.656446   11.084361    ( 0.0000,  0.0000,  0.0000)
  91 O      6.093997    9.571159   11.093998    ( 0.0000,  0.0000,  0.0000)
  92 O      9.046428    9.573233   11.984107    ( 0.0000,  0.0000,  0.0000)
  93 O      3.834428    7.656576   12.009795    ( 0.0000,  0.0000,  0.0000)
  94 O      7.563121    7.654522   10.519261    ( 0.0000,  0.0000,  0.0000)
  95 O      2.408947    9.561507   10.496690    ( 0.0000,  0.0000,  0.0000)
  96 O      0.923964    9.614978   13.113368    ( 0.0000,  0.0000,  0.0000)
  97 O      6.016897    7.724415   13.228244    ( 0.0000,  0.0000,  0.0000)
  98 Ti     4.142332    7.667749   13.909160    ( 0.0000,  0.0000,  0.0000)
  99 Ti     9.405389    9.624263   14.051267    ( 0.0000,  0.0000,  0.0000)
 100 Ti     1.852572    9.590236   14.644960    ( 0.0000,  0.0000,  0.0000)
 101 Ti     7.182678    7.687502   14.827885    ( 0.0000,  0.0000,  0.0000)
 102 O      2.329006    7.695055   14.792556    ( 0.0000,  0.0000,  0.0000)
 103 O      7.550645    9.624418   14.812068    ( 0.0000,  0.0000,  0.0000)
 104 O      0.221561    9.603250   15.494644    ( 0.0000,  0.0000,  0.0000)
 105 O      5.204272    7.661416   15.599344    ( 0.0000,  0.0000,  0.0000)
 106 O      8.983388    7.690296   14.091080    ( 0.0000,  0.0000,  0.0000)
 107 O      3.819837    9.586382   14.082747    ( 0.0000,  0.0000,  0.0000)
 108 V      5.796811    7.438764   17.269840    ( 0.0000,  0.0000,  0.0000)
 109 V      5.799344    4.141372   17.271445    ( 0.0000,  0.0000,  0.0000)
 110 O      7.454475    3.990813   16.746794    ( 0.0000,  0.0000,  0.0000)
 111 O      5.335555    8.594630   18.267820    ( 0.0000,  0.0000,  0.0000)
 112 O      5.271460    5.789932   17.860338    ( 0.0000,  0.0000,  0.0000)
 113 O      5.349913    2.998487   18.287816    ( 0.0000,  0.0000,  0.0000)
 114 O      2.498449    5.737745   16.926989    ( 0.0000,  0.0000,  0.0000)
 115 O      7.451651    7.593040   16.746304    ( 0.0000,  0.0000,  0.0000)
 116 H      1.800995    5.764262   17.606541    ( 0.0000,  0.0000,  0.0000)
 117 H      3.379247    5.774493   17.373432    ( 0.0000,  0.0000,  0.0000)

Unit cell:
           periodic     x           y           z      points  spacing
  1. axis:    yes   10.341746    0.000000    0.000000    54     0.1915
  2. axis:    yes   -0.000000   11.467000    0.000000    60     0.1911
  3. axis:    no     0.000000    0.000000   23.497201   125     0.1880

  Lengths:  10.341746  11.467000  23.497201
  Angles:   90.000000  90.000000  90.000000

Effective grid spacing dv^(1/3) = 0.1902

                     log10-error:    total        iterations:
           time      wfs    density  energy       fermi  poisson
iter:   1  22:10:31  -5.50   +inf  -970.968066    2             
iter:   2  22:11:41  -6.33  -4.52  -970.968064    1             
iter:   3  22:12:52  -6.09  -4.54  -970.968049    1             
iter:   4  22:14:02  -7.09  -4.75  -970.968047    1             
iter:   5  22:15:13  -7.17  -4.77  -970.968043    1             
iter:   6  22:16:28  -7.36  -4.85  -970.968041    1             
iter:   7  22:17:39  -8.04  -5.07  -970.968041    1             

Converged after 7 iterations.

Dipole moment: (-18.206661, -22.784975, -1.043301) |e|*Ang

Energy contributions relative to reference atoms: (reference = -1046916.965077)

Kinetic:       +686.114614
Potential:     -880.167692
External:        +0.000000
XC:            -784.711933
Entropy (-ST):   -0.000476
Local:           +7.797209
--------------------------
Free energy:   -970.968279
Extrapolated:  -970.968041

Fermi level: -0.64668

Showing only first 2 kpts
 Kpt  Band  Eigenvalues  Occupancy
  0   462     -1.72114    0.22222
  0   463     -1.71952    0.22222
  0   464      0.20707    0.00004
  0   465      0.35784    0.00001

  1   462     -1.73658    0.44444
  1   463     -1.70986    0.44443
  1   464      0.40408    0.00001
  1   465      0.49501    0.00000



Forces in eV/Ang:
  0 O    -1.84053    0.00839    1.56662
  1 O    -1.85047    0.00186    1.56069
  2 Ti    3.87676    0.00251    2.03514
  3 Ti    3.87194   -0.02985    2.02614
  4 Ti   -2.01177   -0.03995   -1.87570
  5 Ti   -1.96143   -0.00153   -1.84786
  6 O     0.88778    0.01466   -0.16547
  7 O     0.84291    0.08615   -0.15361
  8 O    -0.64513    0.03601   -0.50287
  9 O    -0.64827    0.01652   -0.56344
 10 O    -0.28872   -0.00056   -0.90548
 11 O    -0.24727    0.09818   -0.90200
 12 O     0.00120    0.00174    0.00068
 13 O     0.00045    0.00011   -0.00169
 14 Ti    0.00157    0.00045   -0.00335
 15 Ti   -0.00000    0.00050   -0.00176
 16 Ti   -0.00078    0.00104   -0.00007
 17 Ti   -0.00177    0.00070   -0.00035
 18 O    -0.00000   -0.00009   -0.00074
 19 O    -0.00306    0.00010   -0.00082
 20 O    -0.00127   -0.00051    0.00042
 21 O    -0.00339    0.00020   -0.00423
 22 O     0.00078    0.00079   -0.00120
 23 O     0.00301    0.00114    0.00108
 24 O    -0.00116   -0.00029    0.00381
 25 O    -0.00010    0.00034    0.00616
 26 Ti    0.00197    0.00046    0.00092
 27 Ti    0.00258    0.00194    0.00000
 28 Ti   -0.00339    0.00191   -0.00159
 29 Ti   -0.00431    0.00124    0.00032
 30 O     0.00064   -0.00048    0.00045
 31 O    -0.00062    0.00182   -0.00096
 32 O     0.00071    0.00277   -0.00059
 33 O    -0.00286    0.00310    0.00276
 34 O     0.00408   -0.00013    0.00203
 35 O     0.00080    0.00086   -0.00210
 36 O    -1.84475    0.00176    1.57162
 37 O    -1.85717    0.00929    1.61285
 38 Ti    3.67204   -0.05591    1.83876
 39 Ti    3.84804    0.00151    1.99231
 40 Ti   -1.94747   -0.00237   -1.67880
 41 Ti   -1.64458   -0.03495   -1.50773
 42 O     0.93729    0.04192   -0.18900
 43 O     0.82917    0.01461   -0.16346
 44 O    -0.64280    0.01855   -0.54048
 45 O    -0.66263    0.02807   -0.53431
 46 O    -0.33266    0.03267   -0.85729
 47 O    -0.23252    0.00101   -0.90526
 48 O     0.00136    0.00056    0.00054
 49 O     0.00039   -0.00021   -0.00096
 50 Ti    0.00143    0.00082   -0.00237
 51 Ti   -0.00063    0.00050   -0.00148
 52 Ti    0.00055    0.00065   -0.00025
 53 Ti   -0.00126    0.00099    0.00042
 54 O    -0.00160    0.00134   -0.00094
 55 O    -0.00278    0.00125   -0.00207
 56 O    -0.00088    0.00167   -0.00056
 57 O     0.00029    0.00260    0.00118
 58 O    -0.00056    0.00083    0.00064
 59 O     0.00412   -0.00009    0.00159
 60 O     0.00078    0.00031    0.00211
 61 O     0.00090    0.00110    0.00046
 62 Ti    0.00079    0.00009   -0.00106
 63 Ti    0.00156    0.00088   -0.00042
 64 Ti   -0.00120    0.00219   -0.00211
 65 Ti   -0.00097   -0.00070   -0.00015
 66 O     0.00316    0.00141   -0.00186
 67 O     0.00027    0.00137    0.00019
 68 O     0.00023   -0.00025    0.00078
 69 O     0.00267    0.00222   -0.00115
 70 O     0.00132    0.00142    0.00091
 71 O     0.00041    0.00042   -0.00162
 72 O    -1.84180   -0.00530    1.56633
 73 O    -1.85930   -0.00558    1.61223
 74 Ti    3.67090    0.05816    1.83595
 75 Ti    3.87097    0.03456    2.02428
 76 Ti   -2.00961    0.03495   -1.87833
 77 Ti   -1.64119    0.03429   -1.50962
 78 O     0.93750   -0.01310   -0.18859
 79 O     0.84292   -0.05456   -0.15305
 80 O    -0.64420    0.00267   -0.50004
 81 O    -0.66581    0.00446   -0.53821
 82 O    -0.33232   -0.03145   -0.85902
 83 O    -0.24724   -0.09878   -0.89932
 84 O     0.00128   -0.00057    0.00036
 85 O     0.00042    0.00110   -0.00202
 86 Ti    0.00117    0.00007   -0.00187
 87 Ti    0.00032    0.00085   -0.00216
 88 Ti   -0.00100    0.00091    0.00042
 89 Ti   -0.00049    0.00022   -0.00082
 90 O    -0.00016   -0.00005   -0.00172
 91 O    -0.00301    0.00071   -0.00197
 92 O    -0.00158    0.00293   -0.00180
 93 O    -0.00003   -0.00055   -0.00072
 94 O    -0.00062    0.00008   -0.00026
 95 O     0.00395   -0.00046    0.00054
 96 O    -0.00310   -0.00063    0.00323
 97 O    -0.00005    0.00301   -0.00106
 98 Ti    0.00062    0.00292   -0.00168
 99 Ti    0.00133    0.00005   -0.00002
100 Ti   -0.00157    0.00084   -0.00031
101 Ti    0.00074    0.00291   -0.00241
102 O     0.00243    0.00010   -0.00186
103 O    -0.00109    0.00081   -0.00108
104 O    -0.00102   -0.00276    0.00173
105 O     0.00236    0.00158   -0.00255
106 O     0.00213    0.00081    0.00063
107 O     0.00036   -0.00002   -0.00317
108 V     0.00099    0.00331    0.00188
109 V    -0.00099    0.00156   -0.00055
110 O    -0.00082   -0.00249    0.00123
111 O     0.00362   -0.00212    0.00135
112 O    -0.00435    0.00094    0.00177
113 O    -0.00057   -0.00253    0.00596
114 O     0.00110   -0.00004   -0.00145
115 O     0.00395    0.00581    0.00007
116 H     0.00089    0.00622   -0.00373
117 H     0.00310    0.00133    0.00303

Timing:                                      incl.     excl.
-------------------------------------------------------------------
Density initialized from wave functions:   356.128   356.126   0.3% |
 Symmetrize density:                         0.003     0.003   0.0% |
Forces:                                   2770.818  2770.818   2.1% ||
Hamiltonian:                               137.324     1.974   0.0% |
 Atomic:                                    42.627    10.001   0.0% |
  XC Correction:                            32.626    32.626   0.0% |
 Calculate atomic Hamiltonians:             65.033    65.033   0.1% |
 Communicate:                                5.848     5.848   0.0% |
 Initialize Hamiltonian:                     0.000     0.000   0.0% |
 Poisson:                                    0.158     0.158   0.0% |
 XC 3D grid:                                21.683    21.683   0.0% |
LCAO initialization:                       222.919     1.980   0.0% |
 LCAO eigensolver:                          71.274     0.107   0.0% |
  Calculate projections:                     0.000     0.000   0.0% |
  DenseAtomicCorrection:                     0.001     0.001   0.0% |
  Distribute overlap matrix:                 6.070     6.070   0.0% |
  Orbital Layouts:                          57.897    57.897   0.0% |
  Potential matrix:                          0.067     0.067   0.0% |
  Sum over cells:                            7.133     7.133   0.0% |
 LCAO to grid:                             144.663   144.663   0.1% |
 Set positions (LCAO WFS):                   5.001     4.159   0.0% |
  Basic WFS set positions:                   0.003     0.003   0.0% |
  Basis functions set positions:             0.001     0.001   0.0% |
  P tci:                                     0.008     0.008   0.0% |
  ST tci:                                    0.513     0.513   0.0% |
  mktci:                                     0.317     0.317   0.0% |
PWDescriptor:                                0.198     0.198   0.0% |
Redistribute:                                0.285     0.285   0.0% |
SCF-cycle:                               125130.068     2.779   0.0% |
 Davidson:                               119253.093 31448.225  24.3% |---------|
  Apply H:                               15822.506 15322.460  11.8% |----|
   HMM T:                                  500.046   500.046   0.4% |
  Subspace diag:                         13521.444     1.409   0.0% |
   calc_h_matrix:                         7656.711  2386.239   1.8% ||
    Apply H:                              5270.472  5101.200   3.9% |-|
     HMM T:                                169.272   169.272   0.1% |
   diagonalize:                           1395.161  1395.161   1.1% |
   rotate_psi:                            4468.163  4468.163   3.5% ||
  calc. matrices:                        27815.245 17341.434  13.4% |----|
   Apply H:                              10473.810 10141.093   7.8% |--|
    HMM T:                                 332.717   332.717   0.3% |
  diagonalize:                           21057.021 21057.021  16.3% |------|
  rotate_psi:                             9588.653  9588.653   7.4% |--|
 Density:                                 3466.893     0.044   0.0% |
  Atomic density matrices:                  22.676    22.676   0.0% |
  Mix:                                     714.985   714.985   0.6% |
  Multipole moments:                         0.652     0.652   0.0% |
  Pseudo density:                         2728.536  2728.501   2.1% ||
   Symmetrize density:                       0.034     0.034   0.0% |
 Hamiltonian:                             1319.240    19.107   0.0% |
  Atomic:                                  411.268    96.820   0.1% |
   XC Correction:                          314.449   314.449   0.2% |
  Calculate atomic Hamiltonians:           624.518   624.518   0.5% |
  Communicate:                              54.601    54.601   0.0% |
  Poisson:                                   1.539     1.539   0.0% |
  XC 3D grid:                              208.208   208.208   0.2% |
 Orthonormalize:                          1088.064     0.216   0.0% |
  calc_s_matrix:                           110.210   110.210   0.1% |
  inverse-cholesky:                         68.493    68.493   0.1% |
  projections:                             703.919   703.919   0.5% |
  rotate_psi_s:                            205.226   205.226   0.2% |
Set symmetry:                                0.001     0.001   0.0% |
Other:                                     796.859   796.859   0.6% |
-------------------------------------------------------------------
Total:                                             129414.601 100.0%

Memory usage: 1.38 GiB
Date: Sat May 25 22:17:55 2019
