
  ___ ___ ___ _ _ _  
 |   |   |_  | | | | 
 | | | | | . | | | | 
 |__ |  _|___|_____|  1.5.1
 |___|_|             

User:   siva@s82n14.grendel.cscaa.dk
Date:   Fri May 24 21:05:41 2019
Arch:   x86_64
Pid:    23962
Python: 3.6.3
gpaw:   /home/siva/gpaw-1.5.1/gpaw
_gpaw:  /home/siva/gpaw-1.5.1/build/bin.linux-x86_64-3.6/gpaw-python
ase:    /home/siva/env1.5/lib/python3.6/site-packages/ase (version 3.17.0)
numpy:  /home/siva/env1.5/lib/python3.6/site-packages/numpy (version 1.16.0)
scipy:  /home/siva/env1.5/lib/python3.6/site-packages/scipy (version 1.2.0)
units:  Angstrom and eV
cores:  28
Extra parameters: {'blacs': True}

Input parameters:
  basis: dzp
  kpts: [3 3 1]
  mode: {ecut: 500.0,
         gammacentered: False,
         name: pw}
  xc: PBE

System changes: positions, numbers, cell, pbc, initial_charges, initial_magmoms 

Initialize ...

O-setup:
  name: Oxygen
  id: 32ecd46bf208036f09c70b0ec9a88b78
  Z: 8
  valence: 6
  core: 2
  charge: 0.0
  file: /home/wido/sw/gpaw/basis/gpaw-setups-0.9.20000/O.PBE.gz
  cutoffs: 0.67(comp), 1.17(filt), 0.83(core), lmax=2
  valence states:
                energy  radius
    2s(2.00)   -23.961   0.688
    2p(4.00)    -9.029   0.598
    *s           3.251   0.688
    *p          18.182   0.598
    *d           0.000   0.619

  LCAO basis set for O:
    Name: dzp
    File: /home/wido/sw/gpaw/basis/gpaw-setups-0.9.20000/O.dzp.basis.gz
    Number of radial functions: 5
    Number of spherical harmonics: 13
      l=0, rc=4.3438 Bohr: 2s-sz confined orbital
      l=1, rc=5.3906 Bohr: 2p-sz confined orbital
      l=0, rc=2.2969 Bohr: 2s-dz split-valence wave
      l=1, rc=2.8906 Bohr: 2p-dz split-valence wave
      l=2, rc=5.3906 Bohr: d-type Gaussian polarization

Ti-setup:
  name: Titanium
  id: d282db07e62ae71292040bf25b25ccdd
  Z: 22
  valence: 12
  core: 10
  charge: 0.0
  file: /home/wido/sw/gpaw/basis/gpaw-setups-0.9.20000/Ti.PBE.gz
  cutoffs: 1.22(comp), 2.23(filt), 1.02(core), lmax=2
  valence states:
                energy  radius
    3s(2.00)   -62.623   1.270
    4s(2.00)    -4.466   1.270
    3p(6.00)   -38.862   1.058
    4p(0.00)    -1.466   1.058
    3d(2.00)    -4.258   1.058
    *d          22.953   1.058

  LCAO basis set for Ti:
    Name: dzp
    File: /home/wido/sw/gpaw/basis/gpaw-setups-0.9.20000/Ti.dzp.basis.gz
    Number of radial functions: 11
    Number of spherical harmonics: 29
      l=0, rc=3.4375 Bohr: 3s-sz confined orbital
      l=0, rc=9.9062 Bohr: 4s-sz confined orbital
      l=1, rc=3.8906 Bohr: 3p-sz confined orbital
      l=1, rc=13.1094 Bohr: 4p-sz confined orbital
      l=2, rc=6.6250 Bohr: 3d-sz confined orbital
      l=0, rc=2.1406 Bohr: 3s-dz split-valence wave
      l=0, rc=6.0156 Bohr: 4s-dz split-valence wave
      l=1, rc=2.3125 Bohr: 3p-dz split-valence wave
      l=1, rc=8.1094 Bohr: 4p-dz split-valence wave
      l=2, rc=3.8594 Bohr: 3d-dz split-valence wave
      l=1, rc=9.9062 Bohr: p-type Gaussian polarization

V-setup:
  name: Vanadium
  id: a8354638d66c808f8c867a10b63fd727
  Z: 23
  valence: 13
  core: 10
  charge: 0.0
  file: /home/wido/sw/gpaw/basis/gpaw-setups-0.9.20000/V.PBE.gz
  cutoffs: 1.19(comp), 2.14(filt), 0.96(core), lmax=2
  valence states:
                energy  radius
    3s(2.00)   -70.222   1.254
    4s(2.00)    -4.702   1.254
    3p(6.00)   -44.043   1.281
    4p(0.00)    -1.444   1.281
    3d(3.00)    -5.164   1.169
    *d          22.047   1.169

  LCAO basis set for V:
    Name: dzp
    File: /home/wido/sw/gpaw/basis/gpaw-setups-0.9.20000/V.dzp.basis.gz
    Number of radial functions: 11
    Number of spherical harmonics: 29
      l=0, rc=3.2656 Bohr: 3s-sz confined orbital
      l=0, rc=9.5312 Bohr: 4s-sz confined orbital
      l=1, rc=3.6719 Bohr: 3p-sz confined orbital
      l=1, rc=12.8750 Bohr: 4p-sz confined orbital
      l=2, rc=6.0938 Bohr: 3d-sz confined orbital
      l=0, rc=2.0625 Bohr: 3s-dz split-valence wave
      l=0, rc=5.7656 Bohr: 4s-dz split-valence wave
      l=1, rc=2.4062 Bohr: 3p-dz split-valence wave
      l=1, rc=7.8906 Bohr: 4p-dz split-valence wave
      l=2, rc=3.6562 Bohr: 3d-dz split-valence wave
      l=1, rc=9.5312 Bohr: p-type Gaussian polarization

Reference energy: -1044851.132452

Spin-paired calculation

Occupation numbers:
  Fermi-Dirac: width=0.1000 eV

Convergence criteria:
  Maximum total energy change: 0.0005 eV / electron
  Maximum integral of absolute density change: 0.0001 electrons
  Maximum integral of absolute eigenstate change: 4e-08 eV^2
  Maximum number of iterations: 333

Symmetries present (total): 1

  ( 1  0  0)
  ( 0  1  0)
  ( 0  0  1)

9 k-points: 3 x 3 x 1 Monkhorst-Pack grid
5 k-points in the irreducible part of the Brillouin zone
       k-points in crystal coordinates                weights
   0:     0.00000000    0.00000000    0.00000000          1/9
   1:     0.00000000    0.33333333    0.00000000          2/9
   2:     0.33333333   -0.33333333    0.00000000          2/9
   3:     0.33333333    0.00000000    0.00000000          2/9
   4:     0.33333333    0.33333333    0.00000000          2/9

Wave functions: Plane wave expansion
  Cutoff energy: 500.000 eV
  Number of coefficients (min, max): 70673, 70768
  Pulay-stress correction: 0.000000 eV/Ang^3 (de/decut=0.000000)
  Using FFTW library
  ScaLapack parameters: grid=1x1, blocksize=None
  Wavefunction extrapolation:
    Improved wavefunction reuse through dual PAW basis 

Eigensolver
   Davidson(niter=2, smin=None, normalize=True) 

Densities:
  Coarse grid: 54*60*125 grid
  Fine grid: 108*120*250 grid
  Total Charge: 0.000000 

Density mixing:
  Method: separate
  Backend: pulay
  Linear mixing parameter: 0.05
  Mixing with 5 old densities
  Damping of long wave oscillations: 50 

Hamiltonian:
  XC and Coulomb potentials evaluated on a 108*120*250 grid
  Using the PBE Exchange-Correlation functional
 

XC parameters: PBE with 2 nearest neighbor stencil

Memory estimate:
  Process memory now: 276.57 MiB
  Calculator: 3687.11 MiB
    Density: 8.19 MiB
      Arrays: 2.89 MiB
      Localized functions: 4.19 MiB
      Mixer: 1.11 MiB
    Hamiltonian: 2.00 MiB
      Arrays: 1.89 MiB
      XC: 0.00 MiB
      Poisson: 0.00 MiB
      vbar: 0.11 MiB
    Wavefunctions: 3676.92 MiB
      Arrays psit_nG: 3001.94 MiB
      Eigensolver: 652.97 MiB
      Projections: 2.55 MiB
      Projectors: 2.51 MiB
      PW-descriptor: 16.94 MiB

Total number of cores used: 28
Domain decomposition: 2 x 2 x 7

Number of atoms: 115
Number of atomic orbitals: 2103
Number of bands in calculation: 556
Bands to converge: occupied states only
Number of valence electrons: 920

... initialized

Initializing position-dependent things.

Density initialized from atomic densities
Creating initial wave functions:
  556 bands from LCAO basis set

                                               
                                               
                                               
                                               
                                               
                         O                     
                                               
                        O V                    
             O                O                
                 Ti   O Vi     O               
          O      O    O     OTi     Ti         
               Ti     Oi     O    O            
               O    O     OTi    TiO           
        O   O      Ti      O   O               
            Tii  OO OO  OTiO   Tii             
             O          Ti    O  O   O         
          OTi     Oi   O O   O                 
           O    O     OTi     Oi               
         Ti     Oi     OO   O     O Ti         
         O    OO    OTii    Tii     O          
              Tii     O  O O    OOTi           
             O    OOTi    TO     O             
            TO     O    O      Ti              
          O      OTi    Ti                     
          Ti          O      O O               
               O                               
                                               
                                               
                                               
                                               

Positions:
   0 O      8.476572    1.911173    6.000000    ( 0.0000,  0.0000,  0.0000)
   1 O      3.305699    0.000000    6.000000    ( 0.0000,  0.0000,  0.0000)
   2 Ti     1.412752    0.000000    6.752957    ( 0.0000,  0.0000,  0.0000)
   3 Ti     6.583625    1.911173    6.752957    ( 0.0000,  0.0000,  0.0000)
   4 Ti     9.522250    1.911173    7.640878    ( 0.0000,  0.0000,  0.0000)
   5 Ti     4.351376    0.000000    7.640878    ( 0.0000,  0.0000,  0.0000)
   6 O      9.861551    0.000000    7.505914    ( 0.0000,  0.0000,  0.0000)
   7 O      4.690678    1.911173    7.505914    ( 0.0000,  0.0000,  0.0000)
   8 O      7.629303    1.911173    8.393834    ( 0.0000,  0.0000,  0.0000)
   9 O      2.458430    0.000000    8.393834    ( 0.0000,  0.0000,  0.0000)
  10 O      6.244323    0.000000    6.887921    ( 0.0000,  0.0000,  0.0000)
  11 O      1.073450    1.911173    6.887921    ( 0.0000,  0.0000,  0.0000)
  12 O      9.802430    1.914808    9.579456    ( 0.0000,  0.0000,  0.0000)
  13 O      4.639553   -0.000496    9.580770    ( 0.0000,  0.0000,  0.0000)
  14 Ti     2.746873    0.003277   10.390569    ( 0.0000,  0.0000,  0.0000)
  15 Ti     7.928472    1.906517   10.390024    ( 0.0000,  0.0000,  0.0000)
  16 Ti     0.491608    1.929659   11.116285    ( 0.0000,  0.0000,  0.0000)
  17 Ti     5.645538    0.008624   11.130235    ( 0.0000,  0.0000,  0.0000)
  18 O      0.910619    0.003233   11.075733    ( 0.0000,  0.0000,  0.0000)
  19 O      6.077706    1.915192   11.090261    ( 0.0000,  0.0000,  0.0000)
  20 O      9.037958    1.919770   11.941749    ( 0.0000,  0.0000,  0.0000)
  21 O      3.855292    0.011027   11.944245    ( 0.0000,  0.0000,  0.0000)
  22 O      7.550927    0.001781   10.449439    ( 0.0000,  0.0000,  0.0000)
  23 O      2.387625    1.923585   10.445854    ( 0.0000,  0.0000,  0.0000)
  24 O      0.945208    1.911262   13.071604    ( 0.0000,  0.0000,  0.0000)
  25 O      6.099314   -0.006838   13.073930    ( 0.0000,  0.0000,  0.0000)
  26 Ti     4.207055   11.421603   14.022229    ( 0.0000,  0.0000,  0.0000)
  27 Ti     9.416799    1.864792   14.013476    ( 0.0000,  0.0000,  0.0000)
  28 Ti     1.866053    1.926630   14.593918    ( 0.0000,  0.0000,  0.0000)
  29 Ti     7.001658    0.011084   14.603374    ( 0.0000,  0.0000,  0.0000)
  30 O      2.391632    0.008444   14.810343    ( 0.0000,  0.0000,  0.0000)
  31 O      7.571875    1.861520   14.785685    ( 0.0000,  0.0000,  0.0000)
  32 O      0.235145    1.903570   15.447474    ( 0.0000,  0.0000,  0.0000)
  33 O      5.392232   -0.005517   15.453113    ( 0.0000,  0.0000,  0.0000)
  34 O      9.057484    0.007829   13.939541    ( 0.0000,  0.0000,  0.0000)
  35 O      3.849953    1.926420   13.963840    ( 0.0000,  0.0000,  0.0000)
  36 O      8.476572    5.733518    6.000000    ( 0.0000,  0.0000,  0.0000)
  37 O      3.305699    3.822345    6.000000    ( 0.0000,  0.0000,  0.0000)
  38 Ti     1.412752    3.822345    6.752957    ( 0.0000,  0.0000,  0.0000)
  39 Ti     6.583625    5.733518    6.752957    ( 0.0000,  0.0000,  0.0000)
  40 Ti     9.522250    5.733518    7.640878    ( 0.0000,  0.0000,  0.0000)
  41 Ti     4.351376    3.822345    7.640878    ( 0.0000,  0.0000,  0.0000)
  42 O      9.861551    3.822345    7.505914    ( 0.0000,  0.0000,  0.0000)
  43 O      4.690678    5.733518    7.505914    ( 0.0000,  0.0000,  0.0000)
  44 O      7.629303    5.733518    8.393834    ( 0.0000,  0.0000,  0.0000)
  45 O      2.458430    3.822345    8.393834    ( 0.0000,  0.0000,  0.0000)
  46 O      6.244323    3.822345    6.887921    ( 0.0000,  0.0000,  0.0000)
  47 O      1.073450    5.733518    6.887921    ( 0.0000,  0.0000,  0.0000)
  48 O      9.800295    5.735389    9.588519    ( 0.0000,  0.0000,  0.0000)
  49 O      4.643680    3.824768    9.617868    ( 0.0000,  0.0000,  0.0000)
  50 Ti     2.783634    3.825816   10.336944    ( 0.0000,  0.0000,  0.0000)
  51 Ti     7.948925    5.740920   10.372538    ( 0.0000,  0.0000,  0.0000)
  52 Ti     0.516271    5.733527   11.153261    ( 0.0000,  0.0000,  0.0000)
  53 Ti     5.699021    3.834915   11.221699    ( 0.0000,  0.0000,  0.0000)
  54 O      0.905237    3.826406   11.076338    ( 0.0000,  0.0000,  0.0000)
  55 O      6.076321    5.734986   11.118104    ( 0.0000,  0.0000,  0.0000)
  56 O      9.044459    5.736302   11.947340    ( 0.0000,  0.0000,  0.0000)
  57 O      3.842468    3.838471   11.967207    ( 0.0000,  0.0000,  0.0000)
  58 O      7.540881    3.830636   10.461450    ( 0.0000,  0.0000,  0.0000)
  59 O      2.391295    5.736346   10.445261    ( 0.0000,  0.0000,  0.0000)
  60 O      0.966771    5.735199   13.089548    ( 0.0000,  0.0000,  0.0000)
  61 O      6.035951    3.754442   13.226654    ( 0.0000,  0.0000,  0.0000)
  62 Ti     4.207197    3.784270   13.882645    ( 0.0000,  0.0000,  0.0000)
  63 Ti     9.403314    5.735755   13.956393    ( 0.0000,  0.0000,  0.0000)
  64 Ti     1.854659    5.736102   14.692466    ( 0.0000,  0.0000,  0.0000)
  65 Ti     7.229750    3.815451   14.800491    ( 0.0000,  0.0000,  0.0000)
  66 O      2.360701    3.809032   14.800567    ( 0.0000,  0.0000,  0.0000)
  67 O      7.544551    5.737552   14.596530    ( 0.0000,  0.0000,  0.0000)
  68 O      0.178348    5.742627   15.434782    ( 0.0000,  0.0000,  0.0000)
  69 O      5.206428    3.950808   15.600906    ( 0.0000,  0.0000,  0.0000)
  70 O      8.992375    3.807438   13.978289    ( 0.0000,  0.0000,  0.0000)
  71 O      3.831685    5.749037   13.944474    ( 0.0000,  0.0000,  0.0000)
  72 O      8.476572    9.555862    6.000000    ( 0.0000,  0.0000,  0.0000)
  73 O      3.305699    7.644690    6.000000    ( 0.0000,  0.0000,  0.0000)
  74 Ti     1.412752    7.644690    6.752957    ( 0.0000,  0.0000,  0.0000)
  75 Ti     6.583625    9.555862    6.752957    ( 0.0000,  0.0000,  0.0000)
  76 Ti     9.522250    9.555862    7.640878    ( 0.0000,  0.0000,  0.0000)
  77 Ti     4.351376    7.644690    7.640878    ( 0.0000,  0.0000,  0.0000)
  78 O      9.861551    7.644690    7.505914    ( 0.0000,  0.0000,  0.0000)
  79 O      4.690678    9.555862    7.505914    ( 0.0000,  0.0000,  0.0000)
  80 O      7.629303    9.555862    8.393834    ( 0.0000,  0.0000,  0.0000)
  81 O      2.458430    7.644690    8.393834    ( 0.0000,  0.0000,  0.0000)
  82 O      6.244323    7.644690    6.887921    ( 0.0000,  0.0000,  0.0000)
  83 O      1.073450    9.555862    6.887921    ( 0.0000,  0.0000,  0.0000)
  84 O      9.803224    9.555502    9.579220    ( 0.0000,  0.0000,  0.0000)
  85 O      4.644570    7.641089    9.617572    ( 0.0000,  0.0000,  0.0000)
  86 Ti     2.785741    7.647734   10.341076    ( 0.0000,  0.0000,  0.0000)
  87 Ti     7.930369    9.565422   10.392509    ( 0.0000,  0.0000,  0.0000)
  88 Ti     0.492103    9.537521   11.115563    ( 0.0000,  0.0000,  0.0000)
  89 Ti     5.691449    7.651732   11.226668    ( 0.0000,  0.0000,  0.0000)
  90 O      0.905192    7.645399   11.078036    ( 0.0000,  0.0000,  0.0000)
  91 O      6.077572    9.552496   11.091544    ( 0.0000,  0.0000,  0.0000)
  92 O      9.037994    9.557514   11.941376    ( 0.0000,  0.0000,  0.0000)
  93 O      3.845692    7.652247   11.965171    ( 0.0000,  0.0000,  0.0000)
  94 O      7.543765    7.640236   10.461663    ( 0.0000,  0.0000,  0.0000)
  95 O      2.386929    9.549981   10.446332    ( 0.0000,  0.0000,  0.0000)
  96 O      0.943753    9.563853   13.071041    ( 0.0000,  0.0000,  0.0000)
  97 O      6.037246    7.688243   13.230191    ( 0.0000,  0.0000,  0.0000)
  98 Ti     4.207097    7.582172   13.898966    ( 0.0000,  0.0000,  0.0000)
  99 Ti     9.424338    9.619612   14.017110    ( 0.0000,  0.0000,  0.0000)
 100 Ti     1.874073    9.550217   14.588325    ( 0.0000,  0.0000,  0.0000)
 101 Ti     7.237321    7.684039   14.792721    ( 0.0000,  0.0000,  0.0000)
 102 O      2.360218    7.669659   14.801155    ( 0.0000,  0.0000,  0.0000)
 103 O      7.576279    9.621362   14.786971    ( 0.0000,  0.0000,  0.0000)
 104 O      0.240873    9.589568   15.447356    ( 0.0000,  0.0000,  0.0000)
 105 O      5.197394    7.633199   15.614919    ( 0.0000,  0.0000,  0.0000)
 106 O      8.990616    7.674961   13.975909    ( 0.0000,  0.0000,  0.0000)
 107 O      3.843639    9.568233   13.958812    ( 0.0000,  0.0000,  0.0000)
 108 V      5.873689    4.110926   17.256054    ( 0.0000,  0.0000,  0.0000)
 109 V      5.880305    7.416759   17.257481    ( 0.0000,  0.0000,  0.0000)
 110 O      5.394318    8.550451   18.281344    ( 0.0000,  0.0000,  0.0000)
 111 O      5.587746    5.763419   17.901184    ( 0.0000,  0.0000,  0.0000)
 112 O      5.359876    2.985986   18.275542    ( 0.0000,  0.0000,  0.0000)
 113 O      7.518657    3.848947   16.697961    ( 0.0000,  0.0000,  0.0000)
 114 O      7.529841    7.619878   16.692462    ( 0.0000,  0.0000,  0.0000)

Unit cell:
           periodic     x           y           z      points  spacing
  1. axis:    yes   10.341746    0.000000    0.000000    54     0.1915
  2. axis:    yes   -0.000000   11.467000    0.000000    60     0.1911
  3. axis:    no     0.000000    0.000000   23.497201   125     0.1880

  Lengths:  10.341746  11.467000  23.497201
  Angles:   90.000000  90.000000  90.000000

Effective grid spacing dv^(1/3) = 0.1902

                     log10-error:    total        iterations:
           time      wfs    density  energy       fermi  poisson
iter:   1  21:09:49  -0.12   +inf  -1092.328581    8             
iter:   2  21:10:44  -1.02  -0.96  -1045.182100    2             
iter:   3  21:11:39  +0.45  -1.01  -950.736234    5             
iter:   4  21:12:35  -0.97  -1.35  -963.395928    3             
iter:   5  21:13:30  -1.09  -1.28  -980.506291    2             
iter:   6  21:14:25  -0.10  -1.25  -970.944102    4             
iter:   7  21:15:20  -0.67  -1.64  -969.157871    4             
iter:   8  21:16:16  -1.93  -1.63  -964.184011    3             
iter:   9  21:17:11  -0.80  -1.70  -955.693506    3             
iter:  10  21:18:06  -1.59  -1.99  -956.147418    3             
iter:  11  21:19:01  -2.38  -2.19  -956.621334    3             
iter:  12  21:19:56  -1.57  -2.21  -956.303244    2             
iter:  13  21:20:52  -2.19  -2.34  -955.910114    2             
iter:  14  21:21:47  -2.27  -2.47  -955.986879    3             
iter:  15  21:22:42  -3.20  -2.56  -955.876892    2             
iter:  16  21:23:37  -3.27  -2.64  -955.870316    2             
iter:  17  21:24:32  -3.00  -2.65  -955.887441    3             
iter:  18  21:25:28  -3.06  -2.75  -955.873133    2             
iter:  19  21:26:23  -3.41  -2.79  -955.871047    3             
iter:  20  21:27:18  -3.89  -2.84  -955.868138    3             
iter:  21  21:28:13  -3.85  -2.97  -955.867952    2             
iter:  22  21:29:09  -4.73  -3.14  -955.867340    2             
iter:  23  21:30:04  -4.10  -3.21  -955.868283    2             
iter:  24  21:30:59  -4.77  -3.48  -955.866855    2             
iter:  25  21:31:54  -5.46  -3.74  -955.866625    2             
iter:  26  21:32:49  -5.03  -3.76  -955.866742    2             
iter:  27  21:33:45  -5.35  -3.84  -955.866546    2             
iter:  28  21:34:40  -6.18  -4.06  -955.866551    1             
iter:  29  21:35:35  -5.80  -4.09  -955.866599    2             
iter:  30  21:36:30  -5.67  -4.16  -955.866576    2             
iter:  31  21:37:25  -6.38  -4.29  -955.866555    1             
iter:  32  21:38:21  -6.77  -4.52  -955.866549    1             
iter:  33  21:39:16  -7.38  -4.61  -955.866548    1             
iter:  34  21:40:11  -7.54  -4.70  -955.866548    1             

Converged after 34 iterations.

Dipole moment: (-18.258559, -0.670218, -1.637263) |e|*Ang

Energy contributions relative to reference atoms: (reference = -1044851.132452)

Kinetic:       +685.045420
Potential:     -874.817336
External:        +0.000000
XC:            -773.814231
Entropy (-ST):   -0.000536
Local:           +7.719868
--------------------------
Free energy:   -955.866816
Extrapolated:  -955.866548

Fermi level: -0.78458

Showing only first 2 kpts
 Kpt  Band  Eigenvalues  Occupancy
  0   458     -1.84690    0.22222
  0   459     -1.84290    0.22222
  0   460      0.06429    0.00005
  0   461      0.19244    0.00001

  1   458     -1.86023    0.44443
  1   459     -1.83387    0.44443
  1   460      0.25676    0.00001
  1   461      0.33031    0.00001



Forces in eV/Ang:
  0 O    -1.89646    0.00823    1.56766
  1 O    -1.91309    0.00068    1.56033
  2 Ti    3.84549   -0.00550    1.94005
  3 Ti    3.85136   -0.04488    1.94400
  4 Ti   -1.96783   -0.04702   -2.09387
  5 Ti   -1.89663   -0.00643   -2.03007
  6 O     0.89714    0.00691   -0.18528
  7 O     0.84766    0.08632   -0.17073
  8 O    -0.65951    0.02277   -0.56057
  9 O    -0.66571    0.00735   -0.58649
 10 O    -0.28092    0.00640   -0.86226
 11 O    -0.23925    0.09875   -0.85455
 12 O    -0.13864    0.00690    0.01756
 13 O    -0.19559   -0.00149    0.01547
 14 Ti    0.06199   -0.00048   -0.13296
 15 Ti    0.02496    0.00288   -0.10557
 16 Ti    0.05646   -0.06529    0.08797
 17 Ti    0.10282   -0.01030    0.08710
 18 O     0.11179   -0.00455   -0.08291
 19 O     0.12176    0.01445   -0.04566
 20 O     0.03801    0.00703    0.09470
 21 O     0.00038   -0.00114    0.10832
 22 O    -0.00596    0.00096    0.08882
 23 O     0.02427    0.00508    0.05255
 24 O    -0.09421    0.01579   -0.01478
 25 O    -0.08762    0.01879   -0.02757
 26 Ti    0.02857    0.11078   -0.14031
 27 Ti   -0.03171    0.05032   -0.11509
 28 Ti    0.11858   -0.15873    0.13603
 29 Ti    0.19998   -0.01818    0.02022
 30 O     0.04186   -0.00152    0.07393
 31 O     0.10692    0.03737   -0.04884
 32 O     0.05140   -0.01627    0.00450
 33 O     0.00095   -0.00119    0.06477
 34 O    -0.11347    0.00152    0.09237
 35 O    -0.24110   -0.04829    0.21454
 36 O    -1.90431   -0.00048    1.57693
 37 O    -1.89195    0.00749    1.62189
 38 Ti    3.65578   -0.05623    1.76668
 39 Ti    3.81987    0.00685    1.89468
 40 Ti   -1.89272    0.00353   -1.95801
 41 Ti   -1.61731   -0.04689   -1.74354
 42 O     0.94284    0.03507   -0.20099
 43 O     0.83712   -0.00713   -0.16707
 44 O    -0.66846    0.00207   -0.60322
 45 O    -0.63339    0.02102   -0.58296
 46 O    -0.32553    0.04168   -0.85261
 47 O    -0.22998   -0.00892   -0.87018
 48 O    -0.05421    0.00144    0.10688
 49 O    -0.14370    0.00530    0.03190
 50 Ti    0.00507   -0.03478   -0.04258
 51 Ti   -0.07452   -0.01590   -0.13633
 52 Ti   -0.00339    0.00728   -0.21141
 53 Ti    0.04178   -0.04898    0.07969
 54 O     0.16360    0.07083   -0.08515
 55 O     0.17743    0.02314    0.05694
 56 O     0.15011    0.00648    0.14932
 57 O    -0.00444    0.03142    0.13017
 58 O    -0.00098    0.01486    0.12401
 59 O     0.00044    0.00080    0.06676
 60 O     0.08940    0.00253    0.62389
 61 O    -0.03098    0.01774   -0.20007
 62 Ti    0.07096   -0.06988    0.09606
 63 Ti   -0.24129    0.01852   -0.19848
 64 Ti   -0.47581   -0.00015   -1.12329
 65 Ti   -0.10805   -0.05744    0.13307
 66 O     0.04172    0.52301    0.20071
 67 O    -0.00648    0.03929    0.20179
 68 O     0.45116   -0.00148    0.21660
 69 O     0.12078   -0.04278   -0.21754
 70 O    -0.03285    0.02694    0.17391
 71 O    -0.40849   -0.15896    0.34466
 72 O    -1.89406   -0.00708    1.56533
 73 O    -1.88903   -0.00880    1.61719
 74 Ti    3.67375    0.06373    1.78544
 75 Ti    3.86046    0.04031    1.95497
 76 Ti   -1.97904    0.04098   -2.09794
 77 Ti   -1.63858    0.04972   -1.73736
 78 O     0.93916   -0.03490   -0.20080
 79 O     0.84653   -0.08132   -0.17088
 80 O    -0.65587   -0.01629   -0.56255
 81 O    -0.62892   -0.00766   -0.58091
 82 O    -0.32280   -0.04819   -0.85321
 83 O    -0.23925   -0.08981   -0.85600
 84 O    -0.14356   -0.00805    0.01915
 85 O    -0.14754   -0.00278    0.02495
 86 Ti    0.00130    0.02902   -0.06263
 87 Ti    0.01900   -0.00214   -0.12174
 88 Ti    0.05724    0.07978    0.08603
 89 Ti    0.07050    0.01714    0.06143
 90 O     0.16659   -0.07465   -0.08830
 91 O     0.12593    0.02840   -0.04142
 92 O     0.04110   -0.00484    0.09344
 93 O    -0.01460   -0.01682    0.16664
 94 O    -0.01061   -0.00254    0.13508
 95 O     0.02737   -0.00773    0.05270
 96 O    -0.08465   -0.01295   -0.02153
 97 O    -0.05471   -0.01441   -0.17912
 98 Ti    0.08229    0.35459    0.06937
 99 Ti   -0.03276   -0.05135   -0.12954
100 Ti    0.11290    0.16896    0.14516
101 Ti   -0.11716    0.01722    0.15228
102 O     0.04646   -0.52175    0.19936
103 O     0.10835   -0.02548   -0.04105
104 O     0.04748    0.00641    0.00150
105 O     0.14974   -0.08344   -0.24452
106 O    -0.01431   -0.02438    0.17632
107 O    -0.26406   -0.13957    0.17546
108 V    -0.12495   -0.25659    0.43405
109 V    -0.14395    0.24235    0.42017
110 O     0.17202   -0.24443   -0.26371
111 O    -0.13076    0.03119    0.03415
112 O     0.13994    0.27569   -0.30409
113 O    -0.13076    0.05365   -0.19946
114 O    -0.14238    0.00192   -0.21632

System changes: positions 

Initializing position-dependent things.

Density initialized from wave functions
                                               
                                               
                                               
                                               
                                               
                         O                     
                                               
                        O V                    
             O                O                
                 Ti   O Vi     O               
          O      O    O     OTi     Ti         
               Ti     Oi     O    O            
               O    O     OTi    TiO           
        O   O      Ti      O   O               
            Tii  OO OO  OTiO   Tii             
             O          Ti    O  O   O         
          OTi     Oi   O O   O                 
           O    O     OTi     Oi               
         Ti     Oi     OO   O     O Ti         
         O    OO    OTii    Tii     O          
              Tii     O  O O    OOTi           
             O    OOTi    TO     O             
            TO     O    O      Ti              
          O      OTi    Ti                     
          Ti          O      O O               
               O                               
                                               
                                               
                                               
                                               

Positions:
   0 O      8.476572    1.911173    6.000000    ( 0.0000,  0.0000,  0.0000)
   1 O      3.305699    0.000000    6.000000    ( 0.0000,  0.0000,  0.0000)
   2 Ti     1.412752    0.000000    6.752957    ( 0.0000,  0.0000,  0.0000)
   3 Ti     6.583625    1.911173    6.752957    ( 0.0000,  0.0000,  0.0000)
   4 Ti     9.522250    1.911173    7.640878    ( 0.0000,  0.0000,  0.0000)
   5 Ti     4.351376    0.000000    7.640878    ( 0.0000,  0.0000,  0.0000)
   6 O      9.861551    0.000000    7.505914    ( 0.0000,  0.0000,  0.0000)
   7 O      4.690678    1.911173    7.505914    ( 0.0000,  0.0000,  0.0000)
   8 O      7.629303    1.911173    8.393834    ( 0.0000,  0.0000,  0.0000)
   9 O      2.458430    0.000000    8.393834    ( 0.0000,  0.0000,  0.0000)
  10 O      6.244323    0.000000    6.887921    ( 0.0000,  0.0000,  0.0000)
  11 O      1.073450    1.911173    6.887921    ( 0.0000,  0.0000,  0.0000)
  12 O      9.800449    1.914907    9.579706    ( 0.0000,  0.0000,  0.0000)
  13 O      4.636759   -0.000517    9.580991    ( 0.0000,  0.0000,  0.0000)
  14 Ti     2.747759    0.003270   10.388670    ( 0.0000,  0.0000,  0.0000)
  15 Ti     7.928829    1.906559   10.388516    ( 0.0000,  0.0000,  0.0000)
  16 Ti     0.492414    1.928726   11.117542    ( 0.0000,  0.0000,  0.0000)
  17 Ti     5.647007    0.008476   11.131479    ( 0.0000,  0.0000,  0.0000)
  18 O      0.912216    0.003168   11.074548    ( 0.0000,  0.0000,  0.0000)
  19 O      6.079445    1.915398   11.089609    ( 0.0000,  0.0000,  0.0000)
  20 O      9.038501    1.919871   11.943102    ( 0.0000,  0.0000,  0.0000)
  21 O      3.855298    0.011011   11.945792    ( 0.0000,  0.0000,  0.0000)
  22 O      7.550842    0.001795   10.450708    ( 0.0000,  0.0000,  0.0000)
  23 O      2.387972    1.923657   10.446605    ( 0.0000,  0.0000,  0.0000)
  24 O      0.943862    1.911488   13.071392    ( 0.0000,  0.0000,  0.0000)
  25 O      6.098062   -0.006569   13.073536    ( 0.0000,  0.0000,  0.0000)
  26 Ti     4.207463   11.423185   14.020224    ( 0.0000,  0.0000,  0.0000)
  27 Ti     9.416346    1.865511   14.011832    ( 0.0000,  0.0000,  0.0000)
  28 Ti     1.867747    1.924362   14.595862    ( 0.0000,  0.0000,  0.0000)
  29 Ti     7.004515    0.010824   14.603663    ( 0.0000,  0.0000,  0.0000)
  30 O      2.392230    0.008422   14.811399    ( 0.0000,  0.0000,  0.0000)
  31 O      7.573402    1.862054   14.784987    ( 0.0000,  0.0000,  0.0000)
  32 O      0.235879    1.903338   15.447538    ( 0.0000,  0.0000,  0.0000)
  33 O      5.392245   -0.005534   15.454038    ( 0.0000,  0.0000,  0.0000)
  34 O      9.055863    0.007850   13.940860    ( 0.0000,  0.0000,  0.0000)
  35 O      3.846509    1.925730   13.966905    ( 0.0000,  0.0000,  0.0000)
  36 O      8.476572    5.733518    6.000000    ( 0.0000,  0.0000,  0.0000)
  37 O      3.305699    3.822345    6.000000    ( 0.0000,  0.0000,  0.0000)
  38 Ti     1.412752    3.822345    6.752957    ( 0.0000,  0.0000,  0.0000)
  39 Ti     6.583625    5.733518    6.752957    ( 0.0000,  0.0000,  0.0000)
  40 Ti     9.522250    5.733518    7.640878    ( 0.0000,  0.0000,  0.0000)
  41 Ti     4.351376    3.822345    7.640878    ( 0.0000,  0.0000,  0.0000)
  42 O      9.861551    3.822345    7.505914    ( 0.0000,  0.0000,  0.0000)
  43 O      4.690678    5.733518    7.505914    ( 0.0000,  0.0000,  0.0000)
  44 O      7.629303    5.733518    8.393834    ( 0.0000,  0.0000,  0.0000)
  45 O      2.458430    3.822345    8.393834    ( 0.0000,  0.0000,  0.0000)
  46 O      6.244323    3.822345    6.887921    ( 0.0000,  0.0000,  0.0000)
  47 O      1.073450    5.733518    6.887921    ( 0.0000,  0.0000,  0.0000)
  48 O      9.799521    5.735410    9.590046    ( 0.0000,  0.0000,  0.0000)
  49 O      4.641627    3.824844    9.618324    ( 0.0000,  0.0000,  0.0000)
  50 Ti     2.783706    3.825319   10.336336    ( 0.0000,  0.0000,  0.0000)
  51 Ti     7.947861    5.740693   10.370590    ( 0.0000,  0.0000,  0.0000)
  52 Ti     0.516223    5.733631   11.150241    ( 0.0000,  0.0000,  0.0000)
  53 Ti     5.699617    3.834216   11.222838    ( 0.0000,  0.0000,  0.0000)
  54 O      0.907574    3.827418   11.075121    ( 0.0000,  0.0000,  0.0000)
  55 O      6.078855    5.735317   11.118917    ( 0.0000,  0.0000,  0.0000)
  56 O      9.046604    5.736394   11.949473    ( 0.0000,  0.0000,  0.0000)
  57 O      3.842405    3.838920   11.969067    ( 0.0000,  0.0000,  0.0000)
  58 O      7.540867    3.830848   10.463221    ( 0.0000,  0.0000,  0.0000)
  59 O      2.391302    5.736357   10.446214    ( 0.0000,  0.0000,  0.0000)
  60 O      0.968048    5.735236   13.098461    ( 0.0000,  0.0000,  0.0000)
  61 O      6.035509    3.754695   13.223796    ( 0.0000,  0.0000,  0.0000)
  62 Ti     4.208211    3.783271   13.884017    ( 0.0000,  0.0000,  0.0000)
  63 Ti     9.399867    5.736020   13.953557    ( 0.0000,  0.0000,  0.0000)
  64 Ti     1.847862    5.736100   14.676419    ( 0.0000,  0.0000,  0.0000)
  65 Ti     7.228207    3.814630   14.802392    ( 0.0000,  0.0000,  0.0000)
  66 O      2.361297    3.816504   14.803434    ( 0.0000,  0.0000,  0.0000)
  67 O      7.544459    5.738113   14.599413    ( 0.0000,  0.0000,  0.0000)
  68 O      0.184793    5.742606   15.437876    ( 0.0000,  0.0000,  0.0000)
  69 O      5.208154    3.950197   15.597798    ( 0.0000,  0.0000,  0.0000)
  70 O      8.991906    3.807823   13.980774    ( 0.0000,  0.0000,  0.0000)
  71 O      3.825849    5.746767   13.949397    ( 0.0000,  0.0000,  0.0000)
  72 O      8.476572    9.555862    6.000000    ( 0.0000,  0.0000,  0.0000)
  73 O      3.305699    7.644690    6.000000    ( 0.0000,  0.0000,  0.0000)
  74 Ti     1.412752    7.644690    6.752957    ( 0.0000,  0.0000,  0.0000)
  75 Ti     6.583625    9.555862    6.752957    ( 0.0000,  0.0000,  0.0000)
  76 Ti     9.522250    9.555862    7.640878    ( 0.0000,  0.0000,  0.0000)
  77 Ti     4.351376    7.644690    7.640878    ( 0.0000,  0.0000,  0.0000)
  78 O      9.861551    7.644690    7.505914    ( 0.0000,  0.0000,  0.0000)
  79 O      4.690678    9.555862    7.505914    ( 0.0000,  0.0000,  0.0000)
  80 O      7.629303    9.555862    8.393834    ( 0.0000,  0.0000,  0.0000)
  81 O      2.458430    7.644690    8.393834    ( 0.0000,  0.0000,  0.0000)
  82 O      6.244323    7.644690    6.887921    ( 0.0000,  0.0000,  0.0000)
  83 O      1.073450    9.555862    6.887921    ( 0.0000,  0.0000,  0.0000)
  84 O      9.801173    9.555387    9.579494    ( 0.0000,  0.0000,  0.0000)
  85 O      4.642462    7.641049    9.617928    ( 0.0000,  0.0000,  0.0000)
  86 Ti     2.785760    7.648148   10.340181    ( 0.0000,  0.0000,  0.0000)
  87 Ti     7.930641    9.565391   10.390770    ( 0.0000,  0.0000,  0.0000)
  88 Ti     0.492920    9.538661   11.116792    ( 0.0000,  0.0000,  0.0000)
  89 Ti     5.692456    7.651977   11.227545    ( 0.0000,  0.0000,  0.0000)
  90 O      0.907572    7.644333   11.076774    ( 0.0000,  0.0000,  0.0000)
  91 O      6.079371    9.552902   11.090953    ( 0.0000,  0.0000,  0.0000)
  92 O      9.038582    9.557445   11.942711    ( 0.0000,  0.0000,  0.0000)
  93 O      3.845483    7.652007   11.967551    ( 0.0000,  0.0000,  0.0000)
  94 O      7.543613    7.640200   10.463592    ( 0.0000,  0.0000,  0.0000)
  95 O      2.387320    9.549871   10.447085    ( 0.0000,  0.0000,  0.0000)
  96 O      0.942543    9.563668   13.070733    ( 0.0000,  0.0000,  0.0000)
  97 O      6.036465    7.688037   13.227632    ( 0.0000,  0.0000,  0.0000)
  98 Ti     4.208273    7.587238   13.899957    ( 0.0000,  0.0000,  0.0000)
  99 Ti     9.423870    9.618878   14.015259    ( 0.0000,  0.0000,  0.0000)
 100 Ti     1.875686    9.552631   14.590399    ( 0.0000,  0.0000,  0.0000)
 101 Ti     7.235647    7.684285   14.794897    ( 0.0000,  0.0000,  0.0000)
 102 O      2.360882    7.662205   14.804003    ( 0.0000,  0.0000,  0.0000)
 103 O      7.577826    9.620998   14.786384    ( 0.0000,  0.0000,  0.0000)
 104 O      0.241552    9.589659   15.447378    ( 0.0000,  0.0000,  0.0000)
 105 O      5.199533    7.632007   15.611426    ( 0.0000,  0.0000,  0.0000)
 106 O      8.990411    7.674613   13.978428    ( 0.0000,  0.0000,  0.0000)
 107 O      3.839866    9.566239   13.961319    ( 0.0000,  0.0000,  0.0000)
 108 V      5.871904    4.107261   17.262254    ( 0.0000,  0.0000,  0.0000)
 109 V      5.878249    7.420221   17.263484    ( 0.0000,  0.0000,  0.0000)
 110 O      5.396775    8.546959   18.277576    ( 0.0000,  0.0000,  0.0000)
 111 O      5.585878    5.763864   17.901671    ( 0.0000,  0.0000,  0.0000)
 112 O      5.361875    2.989925   18.271198    ( 0.0000,  0.0000,  0.0000)
 113 O      7.516789    3.849713   16.695111    ( 0.0000,  0.0000,  0.0000)
 114 O      7.527807    7.619905   16.689371    ( 0.0000,  0.0000,  0.0000)

Unit cell:
           periodic     x           y           z      points  spacing
  1. axis:    yes   10.341746    0.000000    0.000000    54     0.1915
  2. axis:    yes   -0.000000   11.467000    0.000000    60     0.1911
  3. axis:    no     0.000000    0.000000   23.497201   125     0.1880

  Lengths:  10.341746  11.467000  23.497201
  Angles:   90.000000  90.000000  90.000000

Effective grid spacing dv^(1/3) = 0.1902

                     log10-error:    total        iterations:
           time      wfs    density  energy       fermi  poisson
iter:   1  21:41:27  -2.93   +inf  -955.947423    3             
iter:   2  21:42:22  -3.80  -3.26  -955.944318    2             
iter:   3  21:43:17  -3.59  -3.28  -955.930197    2             
iter:   4  21:44:12  -4.36  -3.50  -955.930571    2             
iter:   5  21:45:07  -4.90  -3.54  -955.929776    2             
iter:   6  21:46:02  -4.46  -3.65  -955.929278    2             
iter:   7  21:46:57  -5.19  -3.78  -955.928709    2             
iter:   8  21:47:52  -5.29  -4.01  -955.928590    1             
iter:   9  21:48:47  -6.13  -4.18  -955.928603    2             
iter:  10  21:49:42  -5.91  -4.21  -955.928578    2             
iter:  11  21:50:37  -6.61  -4.49  -955.928555    1             
iter:  12  21:51:32  -6.33  -4.56  -955.928559    2             
iter:  13  21:52:27  -6.95  -4.59  -955.928556    1             
iter:  14  21:53:22  -7.97  -4.79  -955.928555    1             

Converged after 14 iterations.

Dipole moment: (-18.462346, -0.759099, -1.605101) |e|*Ang

Energy contributions relative to reference atoms: (reference = -1044851.132452)

Kinetic:       +687.460164
Potential:     -876.804391
External:        +0.000000
XC:            -774.274218
Entropy (-ST):   -0.000519
Local:           +7.690150
--------------------------
Free energy:   -955.928814
Extrapolated:  -955.928555

Fermi level: -0.78492

Showing only first 2 kpts
 Kpt  Band  Eigenvalues  Occupancy
  0   458     -1.85046    0.22222
  0   459     -1.84623    0.22222
  0   460      0.06713    0.00004
  0   461      0.19386    0.00001

  1   458     -1.86227    0.44444
  1   459     -1.83793    0.44443
  1   460      0.25991    0.00001
  1   461      0.33216    0.00001



Forces in eV/Ang:
  0 O    -1.89830    0.00874    1.56639
  1 O    -1.91550    0.00062    1.55891
  2 Ti    3.84478   -0.00509    1.93870
  3 Ti    3.84729   -0.04650    1.94295
  4 Ti   -1.96115   -0.05024   -2.08179
  5 Ti   -1.89276   -0.00615   -2.01821
  6 O     0.89575    0.00657   -0.18585
  7 O     0.84985    0.08530   -0.17316
  8 O    -0.66900    0.02319   -0.57101
  9 O    -0.67808    0.00728   -0.60260
 10 O    -0.27843    0.00596   -0.86047
 11 O    -0.24005    0.09758   -0.85312
 12 O    -0.11303    0.00724    0.02194
 13 O    -0.15927   -0.00089    0.03057
 14 Ti    0.07815   -0.00090   -0.10585
 15 Ti    0.03856    0.00819   -0.07290
 16 Ti    0.05198   -0.04740    0.10051
 17 Ti    0.07824   -0.00935    0.07557
 18 O     0.08608   -0.00311   -0.07932
 19 O     0.10308   -0.00280   -0.04777
 20 O     0.02683    0.00568    0.05854
 21 O     0.00364   -0.00285    0.08786
 22 O     0.00233    0.00336    0.07974
 23 O     0.02166   -0.00962    0.04710
 24 O    -0.05987    0.00889    0.00730
 25 O    -0.06310    0.01770    0.00449
 26 Ti    0.05424    0.10620   -0.10538
 27 Ti    0.01424    0.07229   -0.08404
 28 Ti    0.06596    0.00697    0.10921
 29 Ti    0.13681   -0.01786    0.00478
 30 O     0.04311   -0.00998    0.07875
 31 O     0.07409    0.00953   -0.03830
 32 O     0.04435   -0.02533   -0.01136
 33 O     0.02578   -0.00240    0.01601
 34 O    -0.11385    0.00229    0.08239
 35 O    -0.21365   -0.09339    0.20241
 36 O    -1.90001   -0.00042    1.58269
 37 O    -1.89431    0.00771    1.61889
 38 Ti    3.66463   -0.05795    1.77071
 39 Ti    3.80309    0.00645    1.88850
 40 Ti   -1.88400    0.00323   -1.96664
 41 Ti   -1.62123   -0.04758   -1.72106
 42 O     0.93790    0.04351   -0.19808
 43 O     0.84312   -0.00681   -0.17109
 44 O    -0.66481    0.00245   -0.60203
 45 O    -0.64520    0.02098   -0.60731
 46 O    -0.32019    0.04638   -0.85398
 47 O    -0.23520   -0.00834   -0.87795
 48 O    -0.04567    0.00121    0.06556
 49 O    -0.11775    0.00513    0.01370
 50 Ti    0.03492   -0.01998    0.00649
 51 Ti   -0.08242   -0.01473   -0.07785
 52 Ti    0.01444    0.00772   -0.13639
 53 Ti    0.00692   -0.03290    0.11755
 54 O     0.12779    0.05498   -0.06881
 55 O     0.16785    0.01767    0.03786
 56 O     0.14370    0.00618    0.10180
 57 O    -0.00817    0.01723    0.06805
 58 O     0.02117    0.01648    0.10641
 59 O     0.00507    0.00071    0.05899
 60 O    -0.12244    0.00208    0.07183
 61 O     0.00600    0.00776   -0.19441
 62 Ti   -0.02894    0.07969    0.13151
 63 Ti   -0.13824    0.01987    0.02901
 64 Ti   -0.18383    0.00360   -0.66222
 65 Ti   -0.12205   -0.01823    0.10643
 66 O     0.04888    0.23826    0.14846
 67 O    -0.01898    0.02893    0.18431
 68 O     0.18723   -0.00223    0.11028
 69 O     0.17724   -0.05619   -0.06502
 70 O    -0.03548    0.01353    0.15929
 71 O    -0.26334   -0.08582    0.25575
 72 O    -1.89609   -0.00764    1.56423
 73 O    -1.89179   -0.00899    1.61439
 74 Ti    3.68153    0.06504    1.78817
 75 Ti    3.85564    0.04228    1.95306
 76 Ti   -1.97140    0.04453   -2.08572
 77 Ti   -1.64107    0.05015   -1.71594
 78 O     0.93444   -0.04298   -0.19795
 79 O     0.84886   -0.08058   -0.17344
 80 O    -0.66571   -0.01679   -0.57309
 81 O    -0.64130   -0.00761   -0.60514
 82 O    -0.31757   -0.05241   -0.85443
 83 O    -0.24008   -0.08921   -0.85448
 84 O    -0.11745   -0.00836    0.02177
 85 O    -0.12104   -0.00219    0.01080
 86 Ti    0.03235    0.01562   -0.00806
 87 Ti    0.03408   -0.00665   -0.08541
 88 Ti    0.05211    0.06007    0.09945
 89 Ti    0.03061    0.00360    0.10265
 90 O     0.13085   -0.05752   -0.07238
 91 O     0.10646    0.03688   -0.04339
 92 O     0.02962   -0.00320    0.05668
 93 O    -0.01780   -0.00921    0.09301
 94 O     0.01208   -0.00381    0.11676
 95 O     0.02499    0.00677    0.04648
 96 O    -0.04996   -0.00568    0.00295
 97 O    -0.01259   -0.00163   -0.18097
 98 Ti   -0.03812    0.15944    0.10242
 99 Ti    0.01155   -0.07425   -0.09668
100 Ti    0.05424   -0.00141    0.11863
101 Ti   -0.12797   -0.01636    0.12730
102 O     0.04846   -0.25435    0.14862
103 O     0.07754    0.00118   -0.03356
104 O     0.03926    0.01577   -0.01500
105 O     0.19975   -0.06321   -0.09446
106 O    -0.01679   -0.00879    0.16043
107 O    -0.22591   -0.07930    0.16455
108 V     0.05400    0.22920   -0.14414
109 V     0.02919   -0.20633   -0.13062
110 O     0.00330    0.16014    0.11067
111 O    -0.12705    0.01801    0.06224
112 O    -0.04492   -0.15131    0.09474
113 O    -0.14376    0.02932   -0.10278
114 O    -0.16003    0.02042   -0.11763

System changes: positions 

Initializing position-dependent things.

Density initialized from wave functions
                                               
                                               
                                               
                                               
                                               
                         O                     
                                               
                        O V                    
             O                O                
                 Ti   O Vi     O               
          O      O    O     OTi     Ti         
               Ti     Oi     O    O            
               O    O     OTi    TiO           
        O   O      Ti      O   O               
            Tii  OO OO  OTiO   Tii             
             O          Ti    O  O   O         
          OTi     Oi   O O   O                 
           O    O     OTi     Oi               
         Ti     Oi     OO   O     O Ti         
         O    OO    OTii    Tii     O          
              Tii     O  O O    OOTi           
             O    OOTi    TO     O             
            TO     O    O      Ti              
          O      Ti     Ti                     
          Ti          O      O O               
               O                               
                                               
                                               
                                               
                                               

Positions:
   0 O      8.476572    1.911173    6.000000    ( 0.0000,  0.0000,  0.0000)
   1 O      3.305699    0.000000    6.000000    ( 0.0000,  0.0000,  0.0000)
   2 Ti     1.412752    0.000000    6.752957    ( 0.0000,  0.0000,  0.0000)
   3 Ti     6.583625    1.911173    6.752957    ( 0.0000,  0.0000,  0.0000)
   4 Ti     9.522250    1.911173    7.640878    ( 0.0000,  0.0000,  0.0000)
   5 Ti     4.351376    0.000000    7.640878    ( 0.0000,  0.0000,  0.0000)
   6 O      9.861551    0.000000    7.505914    ( 0.0000,  0.0000,  0.0000)
   7 O      4.690678    1.911173    7.505914    ( 0.0000,  0.0000,  0.0000)
   8 O      7.629303    1.911173    8.393834    ( 0.0000,  0.0000,  0.0000)
   9 O      2.458430    0.000000    8.393834    ( 0.0000,  0.0000,  0.0000)
  10 O      6.244323    0.000000    6.887921    ( 0.0000,  0.0000,  0.0000)
  11 O      1.073450    1.911173    6.887921    ( 0.0000,  0.0000,  0.0000)
  12 O      9.796356    1.915151    9.580417    ( 0.0000,  0.0000,  0.0000)
  13 O      4.630989   -0.000553    9.581899    ( 0.0000,  0.0000,  0.0000)
  14 Ti     2.750284    0.003243   10.384808    ( 0.0000,  0.0000,  0.0000)
  15 Ti     7.930024    1.906790   10.385730    ( 0.0000,  0.0000,  0.0000)
  16 Ti     0.494231    1.926945   11.120863    ( 0.0000,  0.0000,  0.0000)
  17 Ti     5.649903    0.008148   11.134166    ( 0.0000,  0.0000,  0.0000)
  18 O      0.915390    0.003049   11.071806    ( 0.0000,  0.0000,  0.0000)
  19 O      6.083136    1.915458   11.087996    ( 0.0000,  0.0000,  0.0000)
  20 O      9.039519    1.920077   11.945429    ( 0.0000,  0.0000,  0.0000)
  21 O      3.855393    0.010929   11.948979    ( 0.0000,  0.0000,  0.0000)
  22 O      7.550846    0.001888   10.453514    ( 0.0000,  0.0000,  0.0000)
  23 O      2.388736    1.923462   10.448264    ( 0.0000,  0.0000,  0.0000)
  24 O      0.941506    1.911854   13.071442    ( 0.0000,  0.0000,  0.0000)
  25 O      6.095685   -0.005955   13.073400    ( 0.0000,  0.0000,  0.0000)
  26 Ti     4.209085   11.426856   14.016308    ( 0.0000,  0.0000,  0.0000)
  27 Ti     9.416418    1.867783   14.008680    ( 0.0000,  0.0000,  0.0000)
  28 Ti     1.870476    1.923104   14.599836    ( 0.0000,  0.0000,  0.0000)
  29 Ti     7.009760    0.010211   14.603966    ( 0.0000,  0.0000,  0.0000)
  30 O      2.393691    0.008157   14.814047    ( 0.0000,  0.0000,  0.0000)
  31 O      7.576230    1.862631   14.783583    ( 0.0000,  0.0000,  0.0000)
  32 O      0.237458    1.902554   15.447293    ( 0.0000,  0.0000,  0.0000)
  33 O      5.392902   -0.005605   15.455026    ( 0.0000,  0.0000,  0.0000)
  34 O      9.051976    0.007922   13.943766    ( 0.0000,  0.0000,  0.0000)
  35 O      3.838960    1.922947   13.973931    ( 0.0000,  0.0000,  0.0000)
  36 O      8.476572    5.733518    6.000000    ( 0.0000,  0.0000,  0.0000)
  37 O      3.305699    3.822345    6.000000    ( 0.0000,  0.0000,  0.0000)
  38 Ti     1.412752    3.822345    6.752957    ( 0.0000,  0.0000,  0.0000)
  39 Ti     6.583625    5.733518    6.752957    ( 0.0000,  0.0000,  0.0000)
  40 Ti     9.522250    5.733518    7.640878    ( 0.0000,  0.0000,  0.0000)
  41 Ti     4.351376    3.822345    7.640878    ( 0.0000,  0.0000,  0.0000)
  42 O      9.861551    3.822345    7.505914    ( 0.0000,  0.0000,  0.0000)
  43 O      4.690678    5.733518    7.505914    ( 0.0000,  0.0000,  0.0000)
  44 O      7.629303    5.733518    8.393834    ( 0.0000,  0.0000,  0.0000)
  45 O      2.458430    3.822345    8.393834    ( 0.0000,  0.0000,  0.0000)
  46 O      6.244323    3.822345    6.887921    ( 0.0000,  0.0000,  0.0000)
  47 O      1.073450    5.733518    6.887921    ( 0.0000,  0.0000,  0.0000)
  48 O      9.797883    5.735453    9.592660    ( 0.0000,  0.0000,  0.0000)
  49 O      4.637369    3.825021    9.618956    ( 0.0000,  0.0000,  0.0000)
  50 Ti     2.784630    3.824502   10.336114    ( 0.0000,  0.0000,  0.0000)
  51 Ti     7.945116    5.740179   10.367402    ( 0.0000,  0.0000,  0.0000)
  52 Ti     0.516556    5.733891   11.144902    ( 0.0000,  0.0000,  0.0000)
  53 Ti     5.700169    3.832946   11.226512    ( 0.0000,  0.0000,  0.0000)
  54 O      0.912265    3.829440   11.072622    ( 0.0000,  0.0000,  0.0000)
  55 O      6.084678    5.735970   11.120383    ( 0.0000,  0.0000,  0.0000)
  56 O      9.051572    5.736608   11.953381    ( 0.0000,  0.0000,  0.0000)
  57 O      3.842159    3.839637   11.971953    ( 0.0000,  0.0000,  0.0000)
  58 O      7.541391    3.831397   10.467016    ( 0.0000,  0.0000,  0.0000)
  59 O      2.391433    5.736382   10.448300    ( 0.0000,  0.0000,  0.0000)
  60 O      0.965778    5.735311   13.105902    ( 0.0000,  0.0000,  0.0000)
  61 O      6.035380    3.755051   13.217101    ( 0.0000,  0.0000,  0.0000)
  62 Ti     4.208124    3.784643   13.888191    ( 0.0000,  0.0000,  0.0000)
  63 Ti     9.394212    5.736687   13.952494    ( 0.0000,  0.0000,  0.0000)
  64 Ti     1.838942    5.736189   14.649626    ( 0.0000,  0.0000,  0.0000)
  65 Ti     7.224163    3.813653   14.806269    ( 0.0000,  0.0000,  0.0000)
  66 O      2.362903    3.827218   14.808979    ( 0.0000,  0.0000,  0.0000)
  67 O      7.543923    5.739195   14.605869    ( 0.0000,  0.0000,  0.0000)
  68 O      0.193575    5.742536   15.442605    ( 0.0000,  0.0000,  0.0000)
  69 O      5.213700    3.948398   15.594199    ( 0.0000,  0.0000,  0.0000)
  70 O      8.990717    3.808406   13.986349    ( 0.0000,  0.0000,  0.0000)
  71 O      3.815540    5.743173   13.958940    ( 0.0000,  0.0000,  0.0000)
  72 O      8.476572    9.555862    6.000000    ( 0.0000,  0.0000,  0.0000)
  73 O      3.305699    7.644690    6.000000    ( 0.0000,  0.0000,  0.0000)
  74 Ti     1.412752    7.644690    6.752957    ( 0.0000,  0.0000,  0.0000)
  75 Ti     6.583625    9.555862    6.752957    ( 0.0000,  0.0000,  0.0000)
  76 Ti     9.522250    9.555862    7.640878    ( 0.0000,  0.0000,  0.0000)
  77 Ti     4.351376    7.644690    7.640878    ( 0.0000,  0.0000,  0.0000)
  78 O      9.861551    7.644690    7.505914    ( 0.0000,  0.0000,  0.0000)
  79 O      4.690678    9.555862    7.505914    ( 0.0000,  0.0000,  0.0000)
  80 O      7.629303    9.555862    8.393834    ( 0.0000,  0.0000,  0.0000)
  81 O      2.458430    7.644690    8.393834    ( 0.0000,  0.0000,  0.0000)
  82 O      6.244323    7.644690    6.887921    ( 0.0000,  0.0000,  0.0000)
  83 O      1.073450    9.555862    6.887921    ( 0.0000,  0.0000,  0.0000)
  84 O      9.796924    9.555105    9.580214    ( 0.0000,  0.0000,  0.0000)
  85 O      4.638087    7.640969    9.618425    ( 0.0000,  0.0000,  0.0000)
  86 Ti     2.786585    7.648803   10.339413    ( 0.0000,  0.0000,  0.0000)
  87 Ti     7.931669    9.565205   10.387523    ( 0.0000,  0.0000,  0.0000)
  88 Ti     0.494747    9.540892   11.120069    ( 0.0000,  0.0000,  0.0000)
  89 Ti     5.693862    7.652223   11.230681    ( 0.0000,  0.0000,  0.0000)
  90 O      0.912366    7.642212   11.074157    ( 0.0000,  0.0000,  0.0000)
  91 O      6.083184    9.554086   11.089488    ( 0.0000,  0.0000,  0.0000)
  92 O      9.039697    9.557321   11.944979    ( 0.0000,  0.0000,  0.0000)
  93 O      3.844904    7.651624   11.971395    ( 0.0000,  0.0000,  0.0000)
  94 O      7.543821    7.640081   10.467747    ( 0.0000,  0.0000,  0.0000)
  95 O      2.388196    9.549971   10.448729    ( 0.0000,  0.0000,  0.0000)
  96 O      0.940523    9.563408   13.070613    ( 0.0000,  0.0000,  0.0000)
  97 O      6.035654    7.687866   13.221464    ( 0.0000,  0.0000,  0.0000)
  98 Ti     4.208058    7.594449   13.903159    ( 0.0000,  0.0000,  0.0000)
  99 Ti     9.423865    9.616548   14.011659    ( 0.0000,  0.0000,  0.0000)
 100 Ti     1.878069    9.554121   14.594692    ( 0.0000,  0.0000,  0.0000)
 101 Ti     7.231372    7.684029   14.799472    ( 0.0000,  0.0000,  0.0000)
 102 O      2.362519    7.651099   14.809540    ( 0.0000,  0.0000,  0.0000)
 103 O      7.580754    9.620798   14.785169    ( 0.0000,  0.0000,  0.0000)
 104 O      0.242968    9.590114   15.447014    ( 0.0000,  0.0000,  0.0000)
 105 O      5.205907    7.629664   15.606842    ( 0.0000,  0.0000,  0.0000)
 106 O      8.989860    7.674172   13.984054    ( 0.0000,  0.0000,  0.0000)
 107 O      3.831802    9.562985   13.967040    ( 0.0000,  0.0000,  0.0000)
 108 V      5.872133    4.110705   17.262552    ( 0.0000,  0.0000,  0.0000)
 109 V      5.877682    7.417224   17.263996    ( 0.0000,  0.0000,  0.0000)
 110 O      5.398412    8.548777   18.277976    ( 0.0000,  0.0000,  0.0000)
 111 O      5.581503    5.764599   17.903545    ( 0.0000,  0.0000,  0.0000)
 112 O      5.362010    2.988611   18.270833    ( 0.0000,  0.0000,  0.0000)
 113 O      7.511994    3.850935   16.690726    ( 0.0000,  0.0000,  0.0000)
 114 O      7.522498    7.620436   16.684460    ( 0.0000,  0.0000,  0.0000)

Unit cell:
           periodic     x           y           z      points  spacing
  1. axis:    yes   10.341746    0.000000    0.000000    54     0.1915
  2. axis:    yes   -0.000000   11.467000    0.000000    60     0.1911
  3. axis:    no     0.000000    0.000000   23.497201   125     0.1880

  Lengths:  10.341746  11.467000  23.497201
  Angles:   90.000000  90.000000  90.000000

Effective grid spacing dv^(1/3) = 0.1902

                     log10-error:    total        iterations:
           time      wfs    density  energy       fermi  poisson
iter:   1  21:54:38  -2.76   +inf  -955.995740    3             
iter:   2  21:55:33  -3.71  -3.16  -955.994344    2             
iter:   3  21:56:28  -3.32  -3.18  -955.984657    3             
iter:   4  21:57:23  -4.38  -3.41  -955.983077    2             
iter:   5  21:58:19  -4.99  -3.44  -955.983108    1             
iter:   6  21:59:14  -5.03  -3.44  -955.982256    2             
iter:   7  22:00:09  -4.22  -3.49  -955.984074    2             
iter:   8  22:01:04  -4.87  -3.60  -955.983861    2             
iter:   9  22:02:00  -5.32  -3.60  -955.982818    2             
iter:  10  22:02:55  -4.97  -3.66  -955.984236    2             
iter:  11  22:03:50  -5.63  -3.54  -955.984557    1             
iter:  12  22:04:45  -3.98  -3.52  -955.981920    2             
iter:  13  22:05:40  -4.55  -3.72  -955.982244    2             
iter:  14  22:06:36  -4.29  -3.74  -955.981946    2             
iter:  15  22:07:31  -4.78  -3.76  -955.982706    1             
iter:  16  22:08:26  -5.48  -3.74  -955.981703    1             
iter:  17  22:09:21  -5.30  -3.91  -955.981176    2             
iter:  18  22:10:16  -4.86  -4.01  -955.980684    1             
iter:  19  22:11:11  -4.68  -4.12  -955.981123    2             
iter:  20  22:12:07  -5.55  -4.12  -955.980746    2             
iter:  21  22:13:02  -5.45  -4.28  -955.980831    1             
iter:  22  22:13:57  -6.51  -4.26  -955.980751    1             
iter:  23  22:14:52  -6.52  -4.35  -955.980745    1             
iter:  24  22:15:47  -6.25  -4.42  -955.980752    1             
iter:  25  22:16:42  -6.83  -4.47  -955.980745    1             
iter:  26  22:17:38  -6.82  -4.59  -955.980746    1             
iter:  27  22:18:33  -7.43  -4.71  -955.980742    1             

Converged after 27 iterations.

Dipole moment: (-18.736672, -0.945625, -1.624850) |e|*Ang

Energy contributions relative to reference atoms: (reference = -1044851.132452)

Kinetic:       +688.818990
Potential:     -877.916925
External:        +0.000000
XC:            -774.575437
Entropy (-ST):   -0.000506
Local:           +7.692883
--------------------------
Free energy:   -955.980995
Extrapolated:  -955.980742

Fermi level: -0.79442

Showing only first 2 kpts
 Kpt  Band  Eigenvalues  Occupancy
  0   458     -1.86322    0.22222
  0   459     -1.85883    0.22222
  0   460      0.06028    0.00004
  0   461      0.18533    0.00001

  1   458     -1.87327    0.44444
  1   459     -1.85141    0.44443
  1   460      0.25358    0.00001
  1   461      0.32369    0.00001



Forces in eV/Ang:
  0 O    -1.90119    0.00911    1.56607
  1 O    -1.91694    0.00052    1.55976
  2 Ti    3.84098   -0.00441    1.93167
  3 Ti    3.84154   -0.04731    1.93650
  4 Ti   -1.94845   -0.05265   -2.06571
  5 Ti   -1.88683   -0.00565   -2.00853
  6 O     0.89551    0.00606   -0.18639
  7 O     0.85467    0.08090   -0.17555
  8 O    -0.68685    0.02385   -0.58376
  9 O    -0.69892    0.00722   -0.62575
 10 O    -0.27660    0.00520   -0.85808
 11 O    -0.24257    0.09263   -0.85187
 12 O    -0.06046    0.00747    0.04178
 13 O    -0.09120    0.00032    0.05868
 14 Ti    0.09457   -0.00221   -0.06122
 15 Ti    0.05882    0.01832   -0.02944
 16 Ti    0.03955   -0.00955    0.08903
 17 Ti    0.03931   -0.00903    0.04941
 18 O     0.03404   -0.00100   -0.06209
 19 O     0.05727   -0.01404   -0.04095
 20 O     0.01683    0.00615    0.02054
 21 O     0.01374   -0.00540    0.06180
 22 O     0.01642    0.00739    0.06781
 23 O     0.02140   -0.02637    0.04523
 24 O    -0.00203    0.00895    0.04223
 25 O    -0.02759    0.01585    0.03327
 26 Ti    0.06174    0.09261   -0.02325
 27 Ti    0.06214    0.06966   -0.03763
 28 Ti   -0.02272    0.14099    0.07089
 29 Ti    0.04081   -0.01524   -0.00152
 30 O     0.03036   -0.02306    0.07564
 31 O     0.01580    0.00892   -0.01956
 32 O     0.03003   -0.02583   -0.02105
 33 O     0.06033   -0.00429   -0.06416
 34 O    -0.10219    0.00286    0.06530
 35 O    -0.14014   -0.06719    0.17722
 36 O    -1.89509   -0.00033    1.59206
 37 O    -1.89606    0.00776    1.61514
 38 Ti    3.68030   -0.05844    1.77734
 39 Ti    3.77779    0.00574    1.87387
 40 Ti   -1.86610    0.00283   -1.97525
 41 Ti   -1.63352   -0.04667   -1.69494
 42 O     0.93121    0.05372   -0.19382
 43 O     0.85396   -0.00629   -0.17638
 44 O    -0.66429    0.00318   -0.59603
 45 O    -0.66380    0.02013   -0.63885
 46 O    -0.31265    0.05205   -0.85879
 47 O    -0.24426   -0.00741   -0.88200
 48 O    -0.04197    0.00087   -0.01253
 49 O    -0.06206    0.00613    0.01065
 50 Ti    0.04757    0.00561    0.04191
 51 Ti   -0.05125   -0.01143    0.02050
 52 Ti    0.01318    0.00821   -0.06562
 53 Ti   -0.01841   -0.01961    0.12715
 54 O     0.07342    0.00075   -0.03974
 55 O     0.12296    0.00651    0.02146
 56 O     0.09718    0.00580    0.03697
 57 O    -0.00484    0.00062    0.04807
 58 O     0.04232    0.01011    0.08585
 59 O     0.03643   -0.00020    0.04735
 60 O    -0.37877    0.00186   -0.61449
 61 O     0.02297    0.00276   -0.12658
 62 Ti   -0.16206    0.20910    0.10763
 63 Ti    0.00417    0.02022    0.25935
 64 Ti    0.18113    0.00693    0.06382
 65 Ti   -0.06989   -0.02012   -0.02561
 66 O     0.06600   -0.09872    0.07243
 67 O    -0.06109    0.01243    0.17199
 68 O    -0.09165   -0.00324   -0.04867
 69 O     0.18301   -0.05083   -0.01706
 70 O    -0.04920    0.00705    0.15281
 71 O    -0.05446   -0.01406    0.13877
 72 O    -1.89943   -0.00808    1.56415
 73 O    -1.89422   -0.00898    1.61095
 74 Ti    3.69540    0.06486    1.79260
 75 Ti    3.84846    0.04369    1.94496
 76 Ti   -1.95687    0.04741   -2.06944
 77 Ti   -1.65090    0.04887   -1.69100
 78 O     0.92812   -0.05262   -0.19380
 79 O     0.85394   -0.07657   -0.17609
 80 O    -0.68431   -0.01738   -0.58593
 81 O    -0.66113   -0.00681   -0.63713
 82 O    -0.31025   -0.05720   -0.85839
 83 O    -0.24266   -0.08520   -0.85287
 84 O    -0.06346   -0.00845    0.03927
 85 O    -0.06472   -0.00237    0.01284
 86 Ti    0.04851   -0.00754    0.03876
 87 Ti    0.05536   -0.01625   -0.03543
 88 Ti    0.03888    0.01904    0.08921
 89 Ti   -0.00423   -0.00300    0.12396
 90 O     0.07553   -0.00115   -0.04344
 91 O     0.05964    0.03429   -0.03691
 92 O     0.01989   -0.00280    0.01884
 93 O    -0.01537   -0.00704    0.04862
 94 O     0.03499    0.00333    0.09397
 95 O     0.02446    0.02432    0.04325
 96 O     0.00627   -0.00513    0.04020
 97 O     0.01538    0.00702   -0.12675
 98 Ti   -0.18281   -0.02354    0.07725
 99 Ti    0.05656   -0.07185   -0.04778
100 Ti   -0.03495   -0.14442    0.07740
101 Ti   -0.08325   -0.00705   -0.00785
102 O     0.05629    0.05452    0.07706
103 O     0.02280   -0.00152   -0.01967
104 O     0.02147    0.01637   -0.02418
105 O     0.20106   -0.05182   -0.03720
106 O    -0.02965    0.00092    0.15110
107 O    -0.14375   -0.04702    0.14455
108 V    -0.08146    0.06120   -0.05394
109 V    -0.07586   -0.03652   -0.05478
110 O     0.04386    0.04977    0.01028
111 O    -0.11539    0.00495    0.07620
112 O     0.01384   -0.03035   -0.00977
113 O    -0.04980    0.02898    0.00151
114 O    -0.06713    0.01068   -0.00409

System changes: positions 

Initializing position-dependent things.

Density initialized from wave functions
                                               
                                               
                                               
                                               
                                               
                         O                     
                                               
                        O V                    
             O                O                
                 Ti   O Vi     O               
          O      O    O     OTi     Ti         
               Ti     Oi     O   O             
               O   O      OTi    TiO           
        O   O      Ti      O   O               
            Tii  OO OO  OTiO   Tii             
             O          Ti    O  O   O         
          OTi     Oi   O O   O                 
           O    O     OTi     Oi               
         Ti     Oi     OO   O     O Ti         
         O    OO    OTii    Tii     O          
              Tii     O  O O    OOTi           
             O    OOTi    TO     O             
            TO     O    O      Ti              
          O      Ti     Ti                     
          Ti          O      O O               
               O                               
                                               
                                               
                                               
                                               

Positions:
   0 O      8.476572    1.911173    6.000000    ( 0.0000,  0.0000,  0.0000)
   1 O      3.305699    0.000000    6.000000    ( 0.0000,  0.0000,  0.0000)
   2 Ti     1.412752    0.000000    6.752957    ( 0.0000,  0.0000,  0.0000)
   3 Ti     6.583625    1.911173    6.752957    ( 0.0000,  0.0000,  0.0000)
   4 Ti     9.522250    1.911173    7.640878    ( 0.0000,  0.0000,  0.0000)
   5 Ti     4.351376    0.000000    7.640878    ( 0.0000,  0.0000,  0.0000)
   6 O      9.861551    0.000000    7.505914    ( 0.0000,  0.0000,  0.0000)
   7 O      4.690678    1.911173    7.505914    ( 0.0000,  0.0000,  0.0000)
   8 O      7.629303    1.911173    8.393834    ( 0.0000,  0.0000,  0.0000)
   9 O      2.458430    0.000000    8.393834    ( 0.0000,  0.0000,  0.0000)
  10 O      6.244323    0.000000    6.887921    ( 0.0000,  0.0000,  0.0000)
  11 O      1.073450    1.911173    6.887921    ( 0.0000,  0.0000,  0.0000)
  12 O      9.793069    1.915415    9.581555    ( 0.0000,  0.0000,  0.0000)
  13 O      4.626241   -0.000567    9.583423    ( 0.0000,  0.0000,  0.0000)
  14 Ti     2.753296    0.003188   10.381618    ( 0.0000,  0.0000,  0.0000)
  15 Ti     7.931698    1.907238   10.383665    ( 0.0000,  0.0000,  0.0000)
  16 Ti     0.495909    1.925812   11.124180    ( 0.0000,  0.0000,  0.0000)
  17 Ti     5.652183    0.007809   11.136490    ( 0.0000,  0.0000,  0.0000)
  18 O      0.917712    0.002965   11.069238    ( 0.0000,  0.0000,  0.0000)
  19 O      6.086137    1.915279   11.086415    ( 0.0000,  0.0000,  0.0000)
  20 O      9.040387    1.920302   11.947107    ( 0.0000,  0.0000,  0.0000)
  21 O      3.855692    0.010791   11.951821    ( 0.0000,  0.0000,  0.0000)
  22 O      7.551134    0.002068   10.456242    ( 0.0000,  0.0000,  0.0000)
  23 O      2.389535    1.922910   10.449975    ( 0.0000,  0.0000,  0.0000)
  24 O      0.940175    1.912231   13.072199    ( 0.0000,  0.0000,  0.0000)
  25 O      6.093887   -0.005341   13.073858    ( 0.0000,  0.0000,  0.0000)
  26 Ti     4.210987   11.430473   14.013789    ( 0.0000,  0.0000,  0.0000)
  27 Ti     9.417484    1.870174   14.006282    ( 0.0000,  0.0000,  0.0000)
  28 Ti     1.871584    1.924605   14.603266    ( 0.0000,  0.0000,  0.0000)
  29 Ti     7.013374    0.009612   14.604141    ( 0.0000,  0.0000,  0.0000)
  30 O      2.394997    0.007613   14.816797    ( 0.0000,  0.0000,  0.0000)
  31 O      7.578056    1.863184   14.782473    ( 0.0000,  0.0000,  0.0000)
  32 O      0.238844    1.901700   15.446822    ( 0.0000,  0.0000,  0.0000)
  33 O      5.394298   -0.005718   15.454459    ( 0.0000,  0.0000,  0.0000)
  34 O      9.048084    0.008009   13.946498    ( 0.0000,  0.0000,  0.0000)
  35 O      3.832420    1.920426   13.980866    ( 0.0000,  0.0000,  0.0000)
  36 O      8.476572    5.733518    6.000000    ( 0.0000,  0.0000,  0.0000)
  37 O      3.305699    3.822345    6.000000    ( 0.0000,  0.0000,  0.0000)
  38 Ti     1.412752    3.822345    6.752957    ( 0.0000,  0.0000,  0.0000)
  39 Ti     6.583625    5.733518    6.752957    ( 0.0000,  0.0000,  0.0000)
  40 Ti     9.522250    5.733518    7.640878    ( 0.0000,  0.0000,  0.0000)
  41 Ti     4.351376    3.822345    7.640878    ( 0.0000,  0.0000,  0.0000)
  42 O      9.861551    3.822345    7.505914    ( 0.0000,  0.0000,  0.0000)
  43 O      4.690678    5.733518    7.505914    ( 0.0000,  0.0000,  0.0000)
  44 O      7.629303    5.733518    8.393834    ( 0.0000,  0.0000,  0.0000)
  45 O      2.458430    3.822345    8.393834    ( 0.0000,  0.0000,  0.0000)
  46 O      6.244323    3.822345    6.887921    ( 0.0000,  0.0000,  0.0000)
  47 O      1.073450    5.733518    6.887921    ( 0.0000,  0.0000,  0.0000)
  48 O      9.796235    5.735492    9.593866    ( 0.0000,  0.0000,  0.0000)
  49 O      4.633969    3.825226    9.619538    ( 0.0000,  0.0000,  0.0000)
  50 Ti     2.785898    3.824152   10.336637    ( 0.0000,  0.0000,  0.0000)
  51 Ti     7.942793    5.739700   10.366002    ( 0.0000,  0.0000,  0.0000)
  52 Ti     0.516913    5.734176   11.140728    ( 0.0000,  0.0000,  0.0000)
  53 Ti     5.700211    3.831883   11.230647    ( 0.0000,  0.0000,  0.0000)
  54 O      0.916131    3.830518   11.070560    ( 0.0000,  0.0000,  0.0000)
  55 O      6.089966    5.736439   11.121590    ( 0.0000,  0.0000,  0.0000)
  56 O      9.055931    5.736827   11.956200    ( 0.0000,  0.0000,  0.0000)
  57 O      3.841957    3.840055   11.974524    ( 0.0000,  0.0000,  0.0000)
  58 O      7.542385    3.831858   10.470611    ( 0.0000,  0.0000,  0.0000)
  59 O      2.392179    5.736391   10.450272    ( 0.0000,  0.0000,  0.0000)
  60 O      0.958128    5.735385   13.099756    ( 0.0000,  0.0000,  0.0000)
  61 O      6.035629    3.755315   13.211321    ( 0.0000,  0.0000,  0.0000)
  62 Ti     4.205325    3.788814   13.892211    ( 0.0000,  0.0000,  0.0000)
  63 Ti     9.391118    5.737401   13.956144    ( 0.0000,  0.0000,  0.0000)
  64 Ti     1.836956    5.736353   14.635898    ( 0.0000,  0.0000,  0.0000)
  65 Ti     7.220856    3.812648   14.807807    ( 0.0000,  0.0000,  0.0000)
  66 O      2.364941    3.831650   14.813309    ( 0.0000,  0.0000,  0.0000)
  67 O      7.542531    5.740008   14.612438    ( 0.0000,  0.0000,  0.0000)
  68 O      0.197107    5.742442   15.444398    ( 0.0000,  0.0000,  0.0000)
  69 O      5.219774    3.946574   15.591557    ( 0.0000,  0.0000,  0.0000)
  70 O      8.989193    3.808878   13.992102    ( 0.0000,  0.0000,  0.0000)
  71 O      3.808858    5.740862   13.966658    ( 0.0000,  0.0000,  0.0000)
  72 O      8.476572    9.555862    6.000000    ( 0.0000,  0.0000,  0.0000)
  73 O      3.305699    7.644690    6.000000    ( 0.0000,  0.0000,  0.0000)
  74 Ti     1.412752    7.644690    6.752957    ( 0.0000,  0.0000,  0.0000)
  75 Ti     6.583625    9.555862    6.752957    ( 0.0000,  0.0000,  0.0000)
  76 Ti     9.522250    9.555862    7.640878    ( 0.0000,  0.0000,  0.0000)
  77 Ti     4.351376    7.644690    7.640878    ( 0.0000,  0.0000,  0.0000)
  78 O      9.861551    7.644690    7.505914    ( 0.0000,  0.0000,  0.0000)
  79 O      4.690678    9.555862    7.505914    ( 0.0000,  0.0000,  0.0000)
  80 O      7.629303    9.555862    8.393834    ( 0.0000,  0.0000,  0.0000)
  81 O      2.458430    7.644690    8.393834    ( 0.0000,  0.0000,  0.0000)
  82 O      6.244323    7.644690    6.887921    ( 0.0000,  0.0000,  0.0000)
  83 O      1.073450    9.555862    6.887921    ( 0.0000,  0.0000,  0.0000)
  84 O      9.793501    9.554803    9.581315    ( 0.0000,  0.0000,  0.0000)
  85 O      4.634575    7.640881    9.618966    ( 0.0000,  0.0000,  0.0000)
  86 Ti     2.787818    7.649032   10.339584    ( 0.0000,  0.0000,  0.0000)
  87 Ti     7.933189    9.564817   10.385102    ( 0.0000,  0.0000,  0.0000)
  88 Ti     0.496420    9.542437   11.123364    ( 0.0000,  0.0000,  0.0000)
  89 Ti     5.694619    7.652334   11.234474    ( 0.0000,  0.0000,  0.0000)
  90 O      0.916324    7.641073   11.071967    ( 0.0000,  0.0000,  0.0000)
  91 O      6.086294    9.555303   11.088058    ( 0.0000,  0.0000,  0.0000)
  92 O      9.040673    9.557199   11.946597    ( 0.0000,  0.0000,  0.0000)
  93 O      3.844332    7.651272   11.974493    ( 0.0000,  0.0000,  0.0000)
  94 O      7.544516    7.640090   10.471680    ( 0.0000,  0.0000,  0.0000)
  95 O      2.389108    9.550437   10.450398    ( 0.0000,  0.0000,  0.0000)
  96 O      0.939515    9.563156   13.071237    ( 0.0000,  0.0000,  0.0000)
  97 O      6.035400    7.687871   13.215970    ( 0.0000,  0.0000,  0.0000)
  98 Ti     4.204868    7.598263   13.906121    ( 0.0000,  0.0000,  0.0000)
  99 Ti     9.424792    9.614089   14.008836    ( 0.0000,  0.0000,  0.0000)
 100 Ti     1.878791    9.552686   14.598405    ( 0.0000,  0.0000,  0.0000)
 101 Ti     7.227683    7.683881   14.801692    ( 0.0000,  0.0000,  0.0000)
 102 O      2.364406    7.645685   14.813949    ( 0.0000,  0.0000,  0.0000)
 103 O      7.582757    9.620578   14.784162    ( 0.0000,  0.0000,  0.0000)
 104 O      0.244113    9.590621   15.446426    ( 0.0000,  0.0000,  0.0000)
 105 O      5.212761    7.627436   15.603333    ( 0.0000,  0.0000,  0.0000)
 106 O      8.989026    7.673916   13.989803    ( 0.0000,  0.0000,  0.0000)
 107 O      3.824900    9.560256   13.972696    ( 0.0000,  0.0000,  0.0000)
 108 V      5.870082    4.111941   17.263636    ( 0.0000,  0.0000,  0.0000)
 109 V      5.875361    7.416555   17.265078    ( 0.0000,  0.0000,  0.0000)
 110 O      5.400641    8.549260   18.277099    ( 0.0000,  0.0000,  0.0000)
 111 O      5.577102    5.765105   17.905840    ( 0.0000,  0.0000,  0.0000)
 112 O      5.362971    2.988828   18.269107    ( 0.0000,  0.0000,  0.0000)
 113 O      7.508693    3.852181   16.688236    ( 0.0000,  0.0000,  0.0000)
 114 O      7.518625    7.620842   16.681594    ( 0.0000,  0.0000,  0.0000)

Unit cell:
           periodic     x           y           z      points  spacing
  1. axis:    yes   10.341746    0.000000    0.000000    54     0.1915
  2. axis:    yes   -0.000000   11.467000    0.000000    60     0.1911
  3. axis:    no     0.000000    0.000000   23.497201   125     0.1880

  Lengths:  10.341746  11.467000  23.497201
  Angles:   90.000000  90.000000  90.000000

Effective grid spacing dv^(1/3) = 0.1902

                     log10-error:    total        iterations:
           time      wfs    density  energy       fermi  poisson
iter:   1  22:19:48  -3.11   +inf  -956.014199    3             
iter:   2  22:20:43  -4.02  -3.35  -956.014067    2             
iter:   3  22:21:38  -4.06  -3.37  -956.009653    3             
iter:   4  22:22:33  -4.70  -3.59  -956.009731    2             
iter:   5  22:23:28  -4.81  -3.63  -956.009575    2             
iter:   6  22:24:23  -4.81  -3.77  -956.009421    2             
iter:   7  22:25:18  -5.69  -3.90  -956.009217    2             
iter:   8  22:26:13  -5.53  -4.02  -956.009126    2             
iter:   9  22:27:08  -6.12  -4.29  -956.009156    2             
iter:  10  22:28:03  -6.31  -4.30  -956.009107    2             
iter:  11  22:28:58  -6.92  -4.58  -956.009109    1             
iter:  12  22:29:53  -7.71  -4.65  -956.009108    1             

Converged after 12 iterations.

Dipole moment: (-18.892516, -1.105308, -1.594494) |e|*Ang

Energy contributions relative to reference atoms: (reference = -1044851.132452)

Kinetic:       +690.040841
Potential:     -878.903292
External:        +0.000000
XC:            -774.842262
Entropy (-ST):   -0.000500
Local:           +7.695854
--------------------------
Free energy:   -956.009358
Extrapolated:  -956.009108

Fermi level: -0.78892

Showing only first 2 kpts
 Kpt  Band  Eigenvalues  Occupancy
  0   458     -1.85912    0.22222
  0   459     -1.85487    0.22222
  0   460      0.06723    0.00004
  0   461      0.19199    0.00001

  1   458     -1.86867    0.44444
  1   459     -1.84755    0.44443
  1   460      0.26075    0.00001
  1   461      0.33055    0.00001



Forces in eV/Ang:
  0 O    -1.90255    0.00869    1.56521
  1 O    -1.91517    0.00045    1.56119
  2 Ti    3.83538   -0.00396    1.92827
  3 Ti    3.83814   -0.04452    1.93413
  4 Ti   -1.93796   -0.05100   -2.04868
  5 Ti   -1.88142   -0.00529   -2.00132
  6 O     0.89611    0.00572   -0.18586
  7 O     0.85778    0.07367   -0.17548
  8 O    -0.70015    0.02377   -0.59462
  9 O    -0.71327    0.00716   -0.64645
 10 O    -0.27647    0.00459   -0.85604
 11 O    -0.24425    0.08563   -0.85178
 12 O    -0.00759    0.00637    0.05152
 13 O    -0.02479    0.00121    0.06339
 14 Ti    0.08848   -0.00272   -0.02325
 15 Ti    0.06372    0.02440   -0.00713
 16 Ti    0.03185    0.01634    0.04555
 17 Ti    0.01974   -0.00771    0.02405
 18 O    -0.00619    0.00057   -0.03842
 19 O     0.01246   -0.01252   -0.02847
 20 O     0.01707    0.00695    0.01282
 21 O     0.02416   -0.00724    0.04685
 22 O     0.02796    0.00882    0.05744
 23 O     0.02433   -0.03087    0.04626
 24 O     0.04101    0.01611    0.06729
 25 O    -0.00071    0.01380    0.04150
 26 Ti    0.02424    0.07214    0.02290
 27 Ti    0.05094    0.03765   -0.02296
 28 Ti   -0.05998    0.10398    0.03466
 29 Ti    0.01039   -0.00994   -0.01711
 30 O     0.01279   -0.03038    0.06664
 31 O    -0.02412    0.01016   -0.00570
 32 O     0.01163   -0.01646    0.00142
 33 O     0.06440   -0.00494   -0.07820
 34 O    -0.06752    0.00275    0.04909
 35 O    -0.05963    0.00937    0.15173
 36 O    -1.89513   -0.00028    1.59317
 37 O    -1.89577    0.00717    1.61115
 38 Ti    3.69041   -0.05571    1.78650
 39 Ti    3.76747    0.00519    1.86935
 40 Ti   -1.85587    0.00263   -1.96698
 41 Ti   -1.64461   -0.04304   -1.67432
 42 O     0.92744    0.05466   -0.19258
 43 O     0.85976   -0.00583   -0.17907
 44 O    -0.67094    0.00390   -0.59927
 45 O    -0.67652    0.01851   -0.65604
 46 O    -0.30796    0.05151   -0.86276
 47 O    -0.24823   -0.00680   -0.87425
 48 O    -0.05074    0.00062   -0.08164
 49 O    -0.00850    0.00669    0.02318
 50 Ti    0.03350    0.01837    0.03094
 51 Ti    0.00507   -0.00799    0.08984
 52 Ti   -0.00755    0.00727   -0.04137
 53 Ti   -0.00782   -0.02073    0.09486
 54 O     0.03336   -0.05878   -0.02338
 55 O     0.05699   -0.00300    0.01762
 56 O     0.01401    0.00536   -0.01444
 57 O    -0.00348   -0.00542    0.07952
 58 O     0.04256   -0.00607    0.07287
 59 O     0.07641   -0.00124    0.03167
 60 O    -0.34140    0.00216   -0.60052
 61 O    -0.00338    0.00398   -0.04067
 62 Ti   -0.16124    0.18144    0.04498
 63 Ti    0.03441    0.01765    0.25135
 64 Ti    0.17246    0.00424    0.24237
 65 Ti   -0.03404   -0.02732   -0.08483
 66 O     0.05182   -0.19239    0.04101
 67 O    -0.08203    0.00132    0.14332
 68 O    -0.11788   -0.00371   -0.12713
 69 O     0.11901   -0.04476   -0.01126
 70 O    -0.03992    0.00486    0.14521
 71 O     0.04400    0.01154    0.07138
 72 O    -1.90125   -0.00769    1.56344
 73 O    -1.89429   -0.00835    1.60715
 74 Ti    3.70434    0.06169    1.80034
 75 Ti    3.84389    0.04137    1.94116
 76 Ti   -1.94471    0.04606   -2.05263
 77 Ti   -1.66033    0.04493   -1.67090
 78 O     0.92461   -0.05317   -0.19274
 79 O     0.85728   -0.06958   -0.17618
 80 O    -0.69848   -0.01695   -0.59682
 81 O    -0.67474   -0.00534   -0.65556
 82 O    -0.30569   -0.05596   -0.86204
 83 O    -0.24444   -0.07882   -0.85230
 84 O    -0.00872   -0.00705    0.04865
 85 O    -0.00999   -0.00212    0.02867
 86 Ti    0.03701   -0.01858    0.03428
 87 Ti    0.06071   -0.02221   -0.00880
 88 Ti    0.03071   -0.00898    0.04574
 89 Ti    0.00004    0.00475    0.09963
 90 O     0.03415    0.06117   -0.02640
 91 O     0.01343    0.01924   -0.02478
 92 O     0.02003   -0.00262    0.01097
 93 O    -0.01287   -0.01315    0.06471
 94 O     0.03824    0.01829    0.08070
 95 O     0.02649    0.02954    0.04357
 96 O     0.04690   -0.01272    0.06606
 97 O    -0.00344    0.00840   -0.05102
 98 Ti   -0.17504   -0.02420    0.01327
 99 Ti    0.04427   -0.03842   -0.03105
100 Ti   -0.06912   -0.11370    0.03853
101 Ti   -0.05305    0.00519   -0.07838
102 O     0.03887    0.13565    0.04823
103 O    -0.01541   -0.01059   -0.00966
104 O     0.00094    0.00674   -0.00160
105 O     0.13165   -0.03879   -0.02690
106 O    -0.02348    0.00492    0.14186
107 O    -0.06133   -0.04111    0.12265
108 V    -0.02824    0.10571   -0.11417
109 V    -0.02304   -0.07511   -0.10446
110 O     0.00534    0.09832    0.05057
111 O    -0.10872   -0.00140    0.07179
112 O    -0.02022   -0.08525    0.04475
113 O    -0.03198    0.02508    0.08843
114 O    -0.04160    0.00825    0.09025

System changes: positions 

Initializing position-dependent things.

Density initialized from wave functions
                                               
                                               
                                               
                                               
                                               
                         O                     
                                               
                        O V                    
             O                O                
                 Ti   O Vi     O               
          O      O    O     OTi     Ti         
               Ti     Oi     O   O             
               O   O      OTi    TiO           
        O   O      Ti      O   O               
            Tii  OO OO  OTiO   Tii             
             O          Ti    O  O   O         
          OTi     Oi   O O   O                 
           O    O     OTi     Oi               
         Ti     Oi     OO   O     O Ti         
         O    OO    OTii    Tii     O          
              Tii     O  O O    OOTi           
             O    OOTi    TO     O             
            TO     O    O      Ti              
          O      Ti     Ti                     
          Ti          O      O O               
               O                               
                                               
                                               
                                               
                                               

Positions:
   0 O      8.476572    1.911173    6.000000    ( 0.0000,  0.0000,  0.0000)
   1 O      3.305699    0.000000    6.000000    ( 0.0000,  0.0000,  0.0000)
   2 Ti     1.412752    0.000000    6.752957    ( 0.0000,  0.0000,  0.0000)
   3 Ti     6.583625    1.911173    6.752957    ( 0.0000,  0.0000,  0.0000)
   4 Ti     9.522250    1.911173    7.640878    ( 0.0000,  0.0000,  0.0000)
   5 Ti     4.351376    0.000000    7.640878    ( 0.0000,  0.0000,  0.0000)
   6 O      9.861551    0.000000    7.505914    ( 0.0000,  0.0000,  0.0000)
   7 O      4.690678    1.911173    7.505914    ( 0.0000,  0.0000,  0.0000)
   8 O      7.629303    1.911173    8.393834    ( 0.0000,  0.0000,  0.0000)
   9 O      2.458430    0.000000    8.393834    ( 0.0000,  0.0000,  0.0000)
  10 O      6.244323    0.000000    6.887921    ( 0.0000,  0.0000,  0.0000)
  11 O      1.073450    1.911173    6.887921    ( 0.0000,  0.0000,  0.0000)
  12 O      9.789269    1.915851    9.584017    ( 0.0000,  0.0000,  0.0000)
  13 O      4.620394   -0.000554    9.586496    ( 0.0000,  0.0000,  0.0000)
[...]
                                                

Positions:
   0 O      8.476572    1.911173    6.000000    ( 0.0000,  0.0000,  0.0000)
   1 O      3.305699    0.000000    6.000000    ( 0.0000,  0.0000,  0.0000)
   2 Ti     1.412752    0.000000    6.752957    ( 0.0000,  0.0000,  0.0000)
   3 Ti     6.583625    1.911173    6.752957    ( 0.0000,  0.0000,  0.0000)
   4 Ti     9.522250    1.911173    7.640878    ( 0.0000,  0.0000,  0.0000)
   5 Ti     4.351376    0.000000    7.640878    ( 0.0000,  0.0000,  0.0000)
   6 O      9.861551    0.000000    7.505914    ( 0.0000,  0.0000,  0.0000)
   7 O      4.690678    1.911173    7.505914    ( 0.0000,  0.0000,  0.0000)
   8 O      7.629303    1.911173    8.393834    ( 0.0000,  0.0000,  0.0000)
   9 O      2.458430    0.000000    8.393834    ( 0.0000,  0.0000,  0.0000)
  10 O      6.244323    0.000000    6.887921    ( 0.0000,  0.0000,  0.0000)
  11 O      1.073450    1.911173    6.887921    ( 0.0000,  0.0000,  0.0000)
  12 O      9.796000    1.919625    9.603709    ( 0.0000,  0.0000,  0.0000)
  13 O      4.628584    0.006621    9.607685    ( 0.0000,  0.0000,  0.0000)
  14 Ti     2.781253    0.008246   10.403750    ( 0.0000,  0.0000,  0.0000)
  15 Ti     7.954033    1.914499   10.401277    ( 0.0000,  0.0000,  0.0000)
  16 Ti     0.507307    1.931711   11.157300    ( 0.0000,  0.0000,  0.0000)
  17 Ti     5.659138    0.008756   11.173308    ( 0.0000,  0.0000,  0.0000)
  18 O      0.925903    0.008502   11.076009    ( 0.0000,  0.0000,  0.0000)
  19 O      6.091544    1.919728   11.098808    ( 0.0000,  0.0000,  0.0000)
  20 O      9.050127    1.927095   11.984406    ( 0.0000,  0.0000,  0.0000)
  21 O      3.864852    0.013058   11.995677    ( 0.0000,  0.0000,  0.0000)
  22 O      7.571260    0.008428   10.502845    ( 0.0000,  0.0000,  0.0000)
  23 O      2.413340    1.924773   10.499037    ( 0.0000,  0.0000,  0.0000)
  24 O      0.932142    1.924286   13.120982    ( 0.0000,  0.0000,  0.0000)
  25 O      6.082602    0.016851   13.122659    ( 0.0000,  0.0000,  0.0000)
  26 Ti     4.208467   11.481403   14.082257    ( 0.0000,  0.0000,  0.0000)
  27 Ti     9.406403    1.895009   14.052507    ( 0.0000,  0.0000,  0.0000)
  28 Ti     1.852721    1.934000   14.658231    ( 0.0000,  0.0000,  0.0000)
  29 Ti     7.012422    0.019586   14.646575    ( 0.0000,  0.0000,  0.0000)
  30 O      2.372194    0.018028   14.858765    ( 0.0000,  0.0000,  0.0000)
  31 O      7.548413    1.889308   14.817422    ( 0.0000,  0.0000,  0.0000)
  32 O      0.221863    1.920063   15.499187    ( 0.0000,  0.0000,  0.0000)
  33 O      5.395460    0.008959   15.508939    ( 0.0000,  0.0000,  0.0000)
  34 O      9.029052    0.021405   14.065517    ( 0.0000,  0.0000,  0.0000)
  35 O      3.825679    1.935313   14.105511    ( 0.0000,  0.0000,  0.0000)
  36 O      8.476572    5.733518    6.000000    ( 0.0000,  0.0000,  0.0000)
  37 O      3.305699    3.822345    6.000000    ( 0.0000,  0.0000,  0.0000)
  38 Ti     1.412752    3.822345    6.752957    ( 0.0000,  0.0000,  0.0000)
  39 Ti     6.583625    5.733518    6.752957    ( 0.0000,  0.0000,  0.0000)
  40 Ti     9.522250    5.733518    7.640878    ( 0.0000,  0.0000,  0.0000)
  41 Ti     4.351376    3.822345    7.640878    ( 0.0000,  0.0000,  0.0000)
  42 O      9.861551    3.822345    7.505914    ( 0.0000,  0.0000,  0.0000)
  43 O      4.690678    5.733518    7.505914    ( 0.0000,  0.0000,  0.0000)
  44 O      7.629303    5.733518    8.393834    ( 0.0000,  0.0000,  0.0000)
  45 O      2.458430    3.822345    8.393834    ( 0.0000,  0.0000,  0.0000)
  46 O      6.244323    3.822345    6.887921    ( 0.0000,  0.0000,  0.0000)
  47 O      1.073450    5.733518    6.887921    ( 0.0000,  0.0000,  0.0000)
  48 O      9.789251    5.739158    9.600108    ( 0.0000,  0.0000,  0.0000)
  49 O      4.633397    3.834706    9.646777    ( 0.0000,  0.0000,  0.0000)
  50 Ti     2.808375    3.828471   10.350137    ( 0.0000,  0.0000,  0.0000)
  51 Ti     7.943361    5.742093   10.397359    ( 0.0000,  0.0000,  0.0000)
  52 Ti     0.518976    5.740280   11.141767    ( 0.0000,  0.0000,  0.0000)
  53 Ti     5.705749    3.825046   11.289655    ( 0.0000,  0.0000,  0.0000)
  54 O      0.921581    3.831424   11.070307    ( 0.0000,  0.0000,  0.0000)
  55 O      6.100330    5.742508   11.159286    ( 0.0000,  0.0000,  0.0000)
  56 O      9.049357    5.746513   11.975073    ( 0.0000,  0.0000,  0.0000)
  57 O      3.835537    3.842188   12.022008    ( 0.0000,  0.0000,  0.0000)
  58 O      7.554977    3.832606   10.520752    ( 0.0000,  0.0000,  0.0000)
  59 O      2.413353    5.740789   10.490743    ( 0.0000,  0.0000,  0.0000)
  60 O      0.921591    5.749149   13.096414    ( 0.0000,  0.0000,  0.0000)
  61 O      6.017837    3.778210   13.247872    ( 0.0000,  0.0000,  0.0000)
  62 Ti     4.171813    3.845077   13.941081    ( 0.0000,  0.0000,  0.0000)
  63 Ti     9.368429    5.753983   13.999456    ( 0.0000,  0.0000,  0.0000)
  64 Ti     1.819508    5.750599   14.643590    ( 0.0000,  0.0000,  0.0000)
  65 Ti     7.190220    3.823751   14.865182    ( 0.0000,  0.0000,  0.0000)
  66 O      2.341124    3.842378   14.840599    ( 0.0000,  0.0000,  0.0000)
  67 O      7.510099    5.756770   14.647739    ( 0.0000,  0.0000,  0.0000)
  68 O      0.182962    5.755122   15.460344    ( 0.0000,  0.0000,  0.0000)
  69 O      5.220039    3.966111   15.627681    ( 0.0000,  0.0000,  0.0000)
  70 O      8.979559    3.824389   14.089973    ( 0.0000,  0.0000,  0.0000)
  71 O      3.795189    5.753886   14.071069    ( 0.0000,  0.0000,  0.0000)
  72 O      8.476572    9.555862    6.000000    ( 0.0000,  0.0000,  0.0000)
  73 O      3.305699    7.644690    6.000000    ( 0.0000,  0.0000,  0.0000)
  74 Ti     1.412752    7.644690    6.752957    ( 0.0000,  0.0000,  0.0000)
  75 Ti     6.583625    9.555862    6.752957    ( 0.0000,  0.0000,  0.0000)
  76 Ti     9.522250    9.555862    7.640878    ( 0.0000,  0.0000,  0.0000)
  77 Ti     4.351376    7.644690    7.640878    ( 0.0000,  0.0000,  0.0000)
  78 O      9.861551    7.644690    7.505914    ( 0.0000,  0.0000,  0.0000)
  79 O      4.690678    9.555862    7.505914    ( 0.0000,  0.0000,  0.0000)
  80 O      7.629303    9.555862    8.393834    ( 0.0000,  0.0000,  0.0000)
  81 O      2.458430    7.644690    8.393834    ( 0.0000,  0.0000,  0.0000)
  82 O      6.244323    7.644690    6.887921    ( 0.0000,  0.0000,  0.0000)
  83 O      1.073450    9.555862    6.887921    ( 0.0000,  0.0000,  0.0000)
  84 O      9.796147    9.558976    9.603165    ( 0.0000,  0.0000,  0.0000)
  85 O      4.633724    7.644262    9.645436    ( 0.0000,  0.0000,  0.0000)
  86 Ti     2.807751    7.654086   10.350449    ( 0.0000,  0.0000,  0.0000)
  87 Ti     7.954160    9.570200   10.400830    ( 0.0000,  0.0000,  0.0000)
  88 Ti     0.508209    9.549969   11.156197    ( 0.0000,  0.0000,  0.0000)
  89 Ti     5.705307    7.660084   11.287000    ( 0.0000,  0.0000,  0.0000)
  90 O      0.921693    7.651930   11.069732    ( 0.0000,  0.0000,  0.0000)
  91 O      6.091754    9.565775   11.098019    ( 0.0000,  0.0000,  0.0000)
  92 O      9.050525    9.568541   11.983273    ( 0.0000,  0.0000,  0.0000)
  93 O      3.835505    7.652609   12.019636    ( 0.0000,  0.0000,  0.0000)
  94 O      7.555505    7.650719   10.520239    ( 0.0000,  0.0000,  0.0000)
  95 O      2.413288    9.557770   10.498363    ( 0.0000,  0.0000,  0.0000)
  96 O      0.932206    9.572878   13.119609    ( 0.0000,  0.0000,  0.0000)
  97 O      6.017314    7.726872   13.244014    ( 0.0000,  0.0000,  0.0000)
  98 Ti     4.171117    7.656520   13.940224    ( 0.0000,  0.0000,  0.0000)
  99 Ti     9.407869    9.614155   14.049154    ( 0.0000,  0.0000,  0.0000)
 100 Ti     1.851782    9.566356   14.657682    ( 0.0000,  0.0000,  0.0000)
 101 Ti     7.191473    7.688106   14.857447    ( 0.0000,  0.0000,  0.0000)
 102 O      2.339585    7.660507   14.841809    ( 0.0000,  0.0000,  0.0000)
 103 O      7.551712    9.620124   14.807398    ( 0.0000,  0.0000,  0.0000)
 104 O      0.220737    9.596686   15.497561    ( 0.0000,  0.0000,  0.0000)
 105 O      5.219014    7.595465   15.626709    ( 0.0000,  0.0000,  0.0000)
 106 O      8.983217    7.682856   14.088014    ( 0.0000,  0.0000,  0.0000)
 107 O      3.819075    9.568300   14.097913    ( 0.0000,  0.0000,  0.0000)
 108 V      5.834189    4.152601   17.314795    ( 0.0000,  0.0000,  0.0000)
 109 V      5.836208    7.416721   17.313558    ( 0.0000,  0.0000,  0.0000)
 110 O      5.359340    8.586439   18.283207    ( 0.0000,  0.0000,  0.0000)
 111 O      5.514832    5.785198   18.016837    ( 0.0000,  0.0000,  0.0000)
 112 O      5.344492    2.995063   18.291036    ( 0.0000,  0.0000,  0.0000)
 113 O      7.477293    3.916615   16.748959    ( 0.0000,  0.0000,  0.0000)
 114 O      7.480021    7.626862   16.744090    ( 0.0000,  0.0000,  0.0000)

Unit cell:
           periodic     x           y           z      points  spacing
  1. axis:    yes   10.341746    0.000000    0.000000    54     0.1915
  2. axis:    yes   -0.000000   11.467000    0.000000    60     0.1911
  3. axis:    no     0.000000    0.000000   23.497201   125     0.1880

  Lengths:  10.341746  11.467000  23.497201
  Angles:   90.000000  90.000000  90.000000

Effective grid spacing dv^(1/3) = 0.1902

                     log10-error:    total        iterations:
           time      wfs    density  energy       fermi  poisson
iter:   1  08:01:34  -5.17   +inf  -956.167152    2             
iter:   2  08:02:29  -6.04  -4.34  -956.167155    1             
iter:   3  08:03:24  -6.18  -4.37  -956.167122    1             
iter:   4  08:04:20  -6.71  -4.63  -956.167123    1             
iter:   5  08:05:15  -6.82  -4.67  -956.167121    1             
iter:   6  08:06:10  -7.17  -4.81  -956.167118    1             
iter:   7  08:07:05  -7.76  -5.06  -956.167117    1             

Converged after 7 iterations.

Dipole moment: (-19.337967, -13.902925, -1.603770) |e|*Ang

Energy contributions relative to reference atoms: (reference = -1044851.132452)

Kinetic:       +673.011362
Potential:     -865.371451
External:        +0.000000
XC:            -771.520130
Entropy (-ST):   -0.000480
Local:           +7.713343
--------------------------
Free energy:   -956.167357
Extrapolated:  -956.167117

Fermi level: -0.78896

Showing only first 2 kpts
 Kpt  Band  Eigenvalues  Occupancy
  0   458     -1.86300    0.22222
  0   459     -1.86171    0.22222
  0   460      0.06538    0.00004
  0   461      0.20960    0.00001

  1   458     -1.87849    0.44444
  1   459     -1.85196    0.44443
  1   460      0.26297    0.00001
  1   461      0.34646    0.00001



Forces in eV/Ang:
  0 O    -1.84179    0.00671    1.58823
  1 O    -1.83922    0.00119    1.58371
  2 Ti    3.86972    0.00027    2.00845
  3 Ti    3.86309   -0.02252    1.98937
  4 Ti   -1.99440   -0.03572   -1.90314
  5 Ti   -1.97116   -0.00183   -1.85779
  6 O     0.88370    0.00924   -0.16055
  7 O     0.84355    0.07786   -0.14104
  8 O    -0.64062    0.02831   -0.46704
  9 O    -0.64689    0.01092   -0.53687
 10 O    -0.28912    0.00046   -0.89584
 11 O    -0.25491    0.08744   -0.89783
 12 O     0.00098    0.00184    0.00006
 13 O     0.00022    0.00127   -0.00059
 14 Ti   -0.00002    0.00124   -0.00169
 15 Ti   -0.00156    0.00221   -0.00042
 16 Ti   -0.00055    0.00182    0.00123
 17 Ti   -0.00090    0.00112    0.00149
 18 O    -0.00195    0.00167    0.00079
 19 O    -0.00129    0.00205   -0.00098
 20 O    -0.00026    0.00259   -0.00039
 21 O    -0.00248    0.00163   -0.00073
 22 O    -0.00244    0.00140    0.00031
 23 O    -0.00246    0.00245    0.00120
 24 O     0.00129    0.00125    0.00451
 25 O     0.00215    0.00245    0.00260
 26 Ti    0.00050    0.00223    0.00272
 27 Ti    0.00028    0.00180    0.00213
 28 Ti   -0.00015    0.00115    0.00553
 29 Ti   -0.00124    0.00153    0.00182
 30 O    -0.00196    0.00139    0.00378
 31 O     0.00051    0.00136    0.00273
 32 O    -0.00148    0.00150    0.00236
 33 O    -0.00013    0.00174    0.00096
 34 O     0.00211    0.00262   -0.00003
 35 O     0.00025    0.00298    0.00006
 36 O    -1.85882    0.00071    1.58932
 37 O    -1.83172    0.00705    1.63496
 38 Ti    3.69110   -0.05307    1.83836
 39 Ti    3.85046    0.00188    1.96503
 40 Ti   -1.98518   -0.00047   -1.89336
 41 Ti   -1.68878   -0.02781   -1.52484
 42 O     0.93212    0.02422   -0.17833
 43 O     0.82760    0.00524   -0.14516
 44 O    -0.68825    0.01044   -0.51041
 45 O    -0.63061    0.01218   -0.52219
 46 O    -0.33278    0.02111   -0.83841
 47 O    -0.23527   -0.00148   -0.87049
 48 O     0.00258    0.00117   -0.00124
 49 O    -0.00027   -0.00044   -0.00020
 50 Ti   -0.00079    0.00179   -0.00106
 51 Ti   -0.00003    0.00137   -0.00026
 52 Ti   -0.00063    0.00116    0.00048
 53 Ti   -0.00051    0.00112   -0.00091
 54 O    -0.00148    0.00154    0.00117
 55 O    -0.00197    0.00131   -0.00670
 56 O    -0.00338    0.00188    0.00019
 57 O    -0.00065    0.00204   -0.00012
 58 O    -0.00095    0.00192    0.00075
 59 O    -0.00321    0.00106   -0.00055
 60 O    -0.00050    0.00168    0.00275
 61 O    -0.00119    0.00355    0.00115
 62 Ti   -0.00112    0.00037   -0.00096
 63 Ti   -0.00015    0.00226    0.00129
 64 Ti    0.00038    0.00255    0.00003
 65 Ti   -0.00227    0.00043    0.00070
 66 O    -0.00005    0.00300    0.00060
 67 O     0.00137    0.00236   -0.00117
 68 O    -0.00014    0.00309    0.00095
 69 O     0.00035    0.00062   -0.00187
 70 O    -0.00082    0.00226    0.00089
 71 O    -0.00119    0.00263   -0.00071
 72 O    -1.84341   -0.00497    1.58733
 73 O    -1.83396   -0.00563    1.63291
 74 Ti    3.69416    0.05594    1.83953
 75 Ti    3.86292    0.02433    1.98804
 76 Ti   -1.99235    0.03139   -1.90617
 77 Ti   -1.69024    0.02829   -1.52863
 78 O     0.93147   -0.01012   -0.17841
 79 O     0.84366   -0.05932   -0.14065
 80 O    -0.64095   -0.00409   -0.46648
 81 O    -0.63183    0.00838   -0.52658
 82 O    -0.33133   -0.02112   -0.84085
 83 O    -0.25496   -0.08593   -0.89771
 84 O     0.00123    0.00068   -0.00007
 85 O    -0.00053    0.00270   -0.00041
 86 Ti   -0.00075    0.00064   -0.00127
 87 Ti   -0.00126    0.00075   -0.00115
 88 Ti   -0.00063    0.00049    0.00136
 89 Ti   -0.00066    0.00168   -0.00071
 90 O    -0.00144    0.00094    0.00127
 91 O    -0.00093    0.00132   -0.00120
 92 O    -0.00040    0.00106   -0.00013
 93 O    -0.00074    0.00149   -0.00042
 94 O    -0.00102    0.00068    0.00070
 95 O    -0.00298    0.00028    0.00059
 96 O     0.00179    0.00376    0.00308
 97 O    -0.00129    0.00112    0.00062
 98 Ti   -0.00183    0.00450   -0.00151
 99 Ti    0.00047    0.00252    0.00149
100 Ti   -0.00010    0.00417    0.00453
101 Ti   -0.00271    0.00353    0.00059
102 O    -0.00019    0.00104    0.00072
103 O     0.00113    0.00269    0.00283
104 O    -0.00193    0.00215    0.00099
105 O     0.00030    0.00278   -0.00258
106 O    -0.00152    0.00230    0.00064
107 O     0.00090    0.00176   -0.00125
108 V    -0.00036    0.00447   -0.00179
109 V    -0.00099    0.00183   -0.00053
110 O     0.00067    0.00201   -0.00136
111 O    -0.00185    0.00310   -0.00042
112 O     0.00138    0.00216    0.00026
113 O    -0.00022    0.00486    0.00105
114 O    -0.00062    0.00267    0.00133

Timing:                                      incl.     excl.
-------------------------------------------------------------------
Density initialized from wave functions:   112.973   112.973   0.3% |
 Symmetrize density:                         0.001     0.001   0.0% |
Forces:                                    771.482   771.482   1.9% ||
Hamiltonian:                                41.140     0.801   0.0% |
 Atomic:                                    10.992     0.060   0.0% |
  XC Correction:                            10.932    10.932   0.0% |
 Calculate atomic Hamiltonians:             20.437    20.437   0.1% |
 Communicate:                                2.166     2.166   0.0% |
 Initialize Hamiltonian:                     0.000     0.000   0.0% |
 Poisson:                                    0.046     0.046   0.0% |
 XC 3D grid:                                 6.696     6.696   0.0% |
LCAO initialization:                       187.135     1.583   0.0% |
 LCAO eigensolver:                          64.478     0.091   0.0% |
  Calculate projections:                     0.000     0.000   0.0% |
  DenseAtomicCorrection:                     0.001     0.001   0.0% |
  Distribute overlap matrix:                 5.099     5.099   0.0% |
  Orbital Layouts:                          53.032    53.032   0.1% |
  Potential matrix:                          0.043     0.043   0.0% |
  Sum over cells:                            6.211     6.211   0.0% |
 LCAO to grid:                             115.756   115.756   0.3% |
 Set positions (LCAO WFS):                   5.318     4.251   0.0% |
  Basic WFS set positions:                   0.003     0.003   0.0% |
  Basis functions set positions:             0.001     0.001   0.0% |
  P tci:                                     0.031     0.031   0.0% |
  ST tci:                                    0.595     0.595   0.0% |
  mktci:                                     0.437     0.437   0.0% |
PWDescriptor:                                0.186     0.186   0.0% |
Redistribute:                                0.081     0.081   0.0% |
SCF-cycle:                               38366.577     1.017   0.0% |
 Davidson:                               36502.987  8831.112  22.2% |--------|
  Apply H:                                5226.022  5023.491  12.7% |----|
   HMM T:                                  202.531   202.531   0.5% |
  Subspace diag:                          4012.115     0.494   0.0% |
   calc_h_matrix:                         2350.745   615.990   1.6% ||
    Apply H:                              1734.755  1660.970   4.2% |-|
     HMM T:                                 73.786    73.786   0.2% |
   diagonalize:                            533.184   533.184   1.3% ||
   rotate_psi:                            1127.691  1127.691   2.8% ||
  calc. matrices:                         8187.455  4757.235  12.0% |----|
   Apply H:                               3430.220  3305.556   8.3% |--|
    HMM T:                                 124.664   124.664   0.3% |
  diagonalize:                            7773.120  7773.120  19.6% |-------|
  rotate_psi:                             2473.163  2473.163   6.2% |-|
 Density:                                 1160.697     0.016   0.0% |
  Atomic density matrices:                   7.725     7.725   0.0% |
  Mix:                                     239.802   239.802   0.6% |
  Multipole moments:                         0.234     0.234   0.0% |
  Pseudo density:                          912.920   912.906   2.3% ||
   Symmetrize density:                       0.013     0.013   0.0% |
 Hamiltonian:                              412.080     8.085   0.0% |
  Atomic:                                  110.079     0.661   0.0% |
   XC Correction:                          109.418   109.418   0.3% |
  Calculate atomic Hamiltonians:           205.232   205.232   0.5% |
  Communicate:                              21.398    21.398   0.1% |
  Poisson:                                   0.429     0.429   0.0% |
  XC 3D grid:                               66.858    66.858   0.2% |
 Orthonormalize:                           289.796     0.070   0.0% |
  calc_s_matrix:                            27.265    27.265   0.1% |
  inverse-cholesky:                         24.744    24.744   0.1% |
  projections:                             187.171   187.171   0.5% |
  rotate_psi_s:                             50.547    50.547   0.1% |
Set symmetry:                                0.001     0.001   0.0% |
Other:                                     216.356   216.356   0.5% |
-------------------------------------------------------------------
Total:                                             39695.931 100.0%

Memory usage: 1.33 GiB
Date: Sat May 25 08:07:17 2019
