
  ___ ___ ___ _ _ _  
 |   |   |_  | | | | 
 | | | | | . | | | | 
 |__ |  _|___|_____|  1.5.1
 |___|_|             

User:   siva@s74n31.grendel.cscaa.dk
Date:   Tue Jul  2 14:34:28 2019
Arch:   x86_64
Pid:    92632
Python: 3.6.3
gpaw:   /home/siva/gpaw-1.5.1/gpaw
_gpaw:  /home/siva/gpaw-1.5.1/build/bin.linux-x86_64-3.6/gpaw-python
ase:    /home/siva/env1.5/lib/python3.6/site-packages/ase (version 3.17.0)
numpy:  /home/siva/env1.5/lib/python3.6/site-packages/numpy (version 1.16.0)
scipy:  /home/siva/env1.5/lib/python3.6/site-packages/scipy (version 1.2.0)
units:  Angstrom and eV
cores:  20
Extra parameters: {'blacs': True}

Input parameters:
  basis: dzp
  kpts: [2 2 1]
  mode: {ecut: 500.0,
         gammacentered: False,
         name: pw}
  setups: {Ti: :d,3.5}
  xc: PBE

System changes: positions, numbers, cell, pbc, initial_charges, initial_magmoms 

Initialize ...

O-setup:
  name: Oxygen
  id: 32ecd46bf208036f09c70b0ec9a88b78
  Z: 8
  valence: 6
  core: 2
  charge: 0.0
  file: /home/wido/sw/gpaw/basis/gpaw-setups-0.9.20000/O.PBE.gz
  cutoffs: 0.67(comp), 1.17(filt), 0.83(core), lmax=2
  valence states:
                energy  radius
    2s(2.00)   -23.961   0.688
    2p(4.00)    -9.029   0.598
    *s           3.251   0.688
    *p          18.182   0.598
    *d           0.000   0.619

  LCAO basis set for O:
    Name: dzp
    File: /home/wido/sw/gpaw/basis/gpaw-setups-0.9.20000/O.dzp.basis.gz
    Number of radial functions: 5
    Number of spherical harmonics: 13
      l=0, rc=4.3438 Bohr: 2s-sz confined orbital
      l=1, rc=5.3906 Bohr: 2p-sz confined orbital
      l=0, rc=2.2969 Bohr: 2s-dz split-valence wave
      l=1, rc=2.8906 Bohr: 2p-dz split-valence wave
      l=2, rc=5.3906 Bohr: d-type Gaussian polarization

Ti-setup:
  name: Titanium
  id: d282db07e62ae71292040bf25b25ccdd
  Z: 22
  valence: 12
  core: 10
  charge: 0.0
  Hubbard U: 3.500000 eV (l=2, scale=True)
  file: /home/wido/sw/gpaw/basis/gpaw-setups-0.9.20000/Ti.PBE.gz
  cutoffs: 1.22(comp), 2.23(filt), 1.02(core), lmax=2
  valence states:
                energy  radius
    3s(2.00)   -62.623   1.270
    4s(2.00)    -4.466   1.270
    3p(6.00)   -38.862   1.058
    4p(0.00)    -1.466   1.058
    3d(2.00)    -4.258   1.058
    *d          22.953   1.058

  LCAO basis set for Ti:
    Name: dzp
    File: /home/wido/sw/gpaw/basis/gpaw-setups-0.9.20000/Ti.dzp.basis.gz
    Number of radial functions: 11
    Number of spherical harmonics: 29
      l=0, rc=3.4375 Bohr: 3s-sz confined orbital
      l=0, rc=9.9062 Bohr: 4s-sz confined orbital
      l=1, rc=3.8906 Bohr: 3p-sz confined orbital
      l=1, rc=13.1094 Bohr: 4p-sz confined orbital
      l=2, rc=6.6250 Bohr: 3d-sz confined orbital
      l=0, rc=2.1406 Bohr: 3s-dz split-valence wave
      l=0, rc=6.0156 Bohr: 4s-dz split-valence wave
      l=1, rc=2.3125 Bohr: 3p-dz split-valence wave
      l=1, rc=8.1094 Bohr: 4p-dz split-valence wave
      l=2, rc=3.8594 Bohr: 3d-dz split-valence wave
      l=1, rc=9.9062 Bohr: p-type Gaussian polarization

V-setup:
  name: Vanadium
  id: a8354638d66c808f8c867a10b63fd727
  Z: 23
  valence: 13
  core: 10
  charge: 0.0
  file: /home/wido/sw/gpaw/basis/gpaw-setups-0.9.20000/V.PBE.gz
  cutoffs: 1.19(comp), 2.14(filt), 0.96(core), lmax=2
  valence states:
                energy  radius
    3s(2.00)   -70.222   1.254
    4s(2.00)    -4.702   1.254
    3p(6.00)   -44.043   1.281
    4p(0.00)    -1.444   1.281
    3d(3.00)    -5.164   1.169
    *d          22.047   1.169

  LCAO basis set for V:
    Name: dzp
    File: /home/wido/sw/gpaw/basis/gpaw-setups-0.9.20000/V.dzp.basis.gz
    Number of radial functions: 11
    Number of spherical harmonics: 29
      l=0, rc=3.2656 Bohr: 3s-sz confined orbital
      l=0, rc=9.5312 Bohr: 4s-sz confined orbital
      l=1, rc=3.6719 Bohr: 3p-sz confined orbital
      l=1, rc=12.8750 Bohr: 4p-sz confined orbital
      l=2, rc=6.0938 Bohr: 3d-sz confined orbital
      l=0, rc=2.0625 Bohr: 3s-dz split-valence wave
      l=0, rc=5.7656 Bohr: 4s-dz split-valence wave
      l=1, rc=2.4062 Bohr: 3p-dz split-valence wave
      l=1, rc=7.8906 Bohr: 4p-dz split-valence wave
      l=2, rc=3.6562 Bohr: 3d-dz split-valence wave
      l=1, rc=9.5312 Bohr: p-type Gaussian polarization

H-setup:
  name: Hydrogen
  id: d65de229564ff8ea4db303e23b6d1ecf
  Z: 1
  valence: 1
  core: 0
  charge: 0.0
  file: /home/wido/sw/gpaw/basis/gpaw-setups-0.9.20000/H.PBE.gz
  cutoffs: 0.48(comp), 0.85(filt), 0.53(core), lmax=2
  valence states:
                energy  radius
    1s(1.00)    -6.494   0.476
    *s          20.717   0.476
    *p           0.000   0.476

  LCAO basis set for H:
    Name: dzp
    File: /home/wido/sw/gpaw/basis/gpaw-setups-0.9.20000/H.dzp.basis.gz
    Number of radial functions: 3
    Number of spherical harmonics: 5
      l=0, rc=6.4219 Bohr: 1s-sz confined orbital
      l=0, rc=3.6094 Bohr: 1s-dz split-valence wave
      l=1, rc=6.4219 Bohr: p-type Gaussian polarization

Reference energy: -1046941.945402

Spin-paired calculation

Occupation numbers:
  Fermi-Dirac: width=0.1000 eV

Convergence criteria:
  Maximum total energy change: 0.0005 eV / electron
  Maximum integral of absolute density change: 0.0001 electrons
  Maximum integral of absolute eigenstate change: 4e-08 eV^2
  Maximum number of iterations: 333

Symmetries present (total): 1

  ( 1  0  0)
  ( 0  1  0)
  ( 0  0  1)

4 k-points: 2 x 2 x 1 Monkhorst-Pack grid
2 k-points in the irreducible part of the Brillouin zone
       k-points in crystal coordinates                weights
   0:     0.25000000   -0.25000000    0.00000000          2/4
   1:     0.25000000    0.25000000    0.00000000          2/4

Wave functions: Plane wave expansion
  Cutoff energy: 500.000 eV
  Number of coefficients (min, max): 70729, 70729
  Pulay-stress correction: 0.000000 eV/Ang^3 (de/decut=0.000000)
  Using FFTW library
  ScaLapack parameters: grid=1x1, blocksize=None
  Wavefunction extrapolation:
    Improved wavefunction reuse through dual PAW basis 

Eigensolver
   Davidson(niter=2, smin=None, normalize=True) 

Densities:
  Coarse grid: 54*60*125 grid
  Fine grid: 108*120*250 grid
  Total Charge: 0.000000 

Density mixing:
  Method: separate
  Backend: pulay
  Linear mixing parameter: 0.05
  Mixing with 5 old densities
  Damping of long wave oscillations: 50 

Hamiltonian:
  XC and Coulomb potentials evaluated on a 108*120*250 grid
  Using the PBE Exchange-Correlation functional
 

XC parameters: PBE with 2 nearest neighbor stencil

Memory estimate:
  Process memory now: 269.09 MiB
  Calculator: 1315.99 MiB
    Density: 24.83 MiB
      Arrays: 8.03 MiB
      Localized functions: 13.71 MiB
      Mixer: 3.09 MiB
    Hamiltonian: 5.65 MiB
      Arrays: 5.25 MiB
      XC: 0.00 MiB
      Poisson: 0.00 MiB
      vbar: 0.40 MiB
    Wavefunctions: 1285.51 MiB
      Arrays psit_nG: 606.53 MiB
      Eigensolver: 660.14 MiB
      Projections: 1.47 MiB
      Projectors: 1.56 MiB
      PW-descriptor: 15.80 MiB

Total number of cores used: 20
Parallelization over k-points: 2
Domain decomposition: 1 x 2 x 5

Number of atoms: 120
Number of atomic orbitals: 2136
Number of bands in calculation: 562
Bands to converge: occupied states only
Number of valence electrons: 930

... initialized

Initializing position-dependent things.

Density initialized from atomic densities
Creating initial wave functions:
  562 bands from LCAO basis set

                                                
                                                
                                                
                                                
                                                
                                                
                                   H            
                            O      O            
              O   H  O          O               
                     O   Ti     OV              
                  Oi   O O   HTi    Ti          
           O    O  V   Ti                       
                Oi    O O  O O    O             
         O      O   O Ti   Ti H   TiO           
             TiTi   Ti    OOO   O               
              O   OO    TiTi    Tii             
           OTi     Oi     O  O O     O          
                 O      Ti    TiO               
            O   TiO      O  O  O   O Ti         
          Ti    O    O Oi     Ti    O           
          O   O Ti   Ti     TiO   O             
              O O   O O   O      OTi            
                    Ti     Oi     O             
             Oi     O    O      Ti              
           O      Ti     Ti    O                
           Ti          O     O                  
               O                                
                                                
                                                
                                                
                                                

Positions:
   0 O      8.476572    1.911173    6.000000    ( 0.0000,  0.0000,  0.0000)
   1 O      3.305699    0.000000    6.000000    ( 0.0000,  0.0000,  0.0000)
   2 Ti     1.412752    0.000000    6.752957    ( 0.0000,  0.0000,  0.0000)
   3 Ti     6.583625    1.911173    6.752957    ( 0.0000,  0.0000,  0.0000)
   4 Ti     9.522250    1.911173    7.640878    ( 0.0000,  0.0000,  0.0000)
   5 Ti     4.351376    0.000000    7.640878    ( 0.0000,  0.0000,  0.0000)
   6 O      9.861551    0.000000    7.505914    ( 0.0000,  0.0000,  0.0000)
   7 O      4.690678    1.911173    7.505914    ( 0.0000,  0.0000,  0.0000)
   8 O      7.629303    1.911173    8.393834    ( 0.0000,  0.0000,  0.0000)
   9 O      2.458430    0.000000    8.393834    ( 0.0000,  0.0000,  0.0000)
  10 O      6.244323    0.000000    6.887921    ( 0.0000,  0.0000,  0.0000)
  11 O      1.073450    1.911173    6.887921    ( 0.0000,  0.0000,  0.0000)
  12 O      9.813823    1.916309    9.609005    ( 0.0000,  0.0000,  0.0000)
  13 O      4.647978   11.459914    9.594223    ( 0.0000,  0.0000,  0.0000)
  14 Ti     2.783464   11.440515   10.379951    ( 0.0000,  0.0000,  0.0000)
  15 Ti     7.996452    1.901974   10.357412    ( 0.0000,  0.0000,  0.0000)
  16 Ti     0.512115    1.892539   11.267773    ( 0.0000,  0.0000,  0.0000)
  17 Ti     5.670033    0.011286   11.181826    ( 0.0000,  0.0000,  0.0000)
  18 O      0.917138    0.000552   11.095081    ( 0.0000,  0.0000,  0.0000)
  19 O      6.070151    1.901261   11.099952    ( 0.0000,  0.0000,  0.0000)
  20 O      9.034851    1.891278   11.959895    ( 0.0000,  0.0000,  0.0000)
  21 O      3.872528   11.430504   11.954526    ( 0.0000,  0.0000,  0.0000)
  22 O      7.558624   -0.002490   10.449854    ( 0.0000,  0.0000,  0.0000)
  23 O      2.396169    1.904668   10.456453    ( 0.0000,  0.0000,  0.0000)
  24 O      0.887933    1.903653   13.214875    ( 0.0000,  0.0000,  0.0000)
  25 O      6.132101   11.441825   13.140797    ( 0.0000,  0.0000,  0.0000)
  26 Ti     4.253004   11.387880   14.007970    ( 0.0000,  0.0000,  0.0000)
  27 Ti     9.486709    1.862966   13.985144    ( 0.0000,  0.0000,  0.0000)
  28 Ti     1.896569    1.819327   15.032555    ( 0.0000,  0.0000,  0.0000)
  29 Ti     7.029858    0.000229   14.752207    ( 0.0000,  0.0000,  0.0000)
  30 O      2.388003   11.408843   14.827252    ( 0.0000,  0.0000,  0.0000)
  31 O      7.504648    1.888946   14.833306    ( 0.0000,  0.0000,  0.0000)
  32 O      0.166814    1.741312   15.602007    ( 0.0000,  0.0000,  0.0000)
  33 O      5.366213   11.408190   15.486837    ( 0.0000,  0.0000,  0.0000)
  34 O      9.018008   -0.004596   13.949182    ( 0.0000,  0.0000,  0.0000)
  35 O      3.854760    1.848452   13.942771    ( 0.0000,  0.0000,  0.0000)
  36 O      8.476572    5.733518    6.000000    ( 0.0000,  0.0000,  0.0000)
  37 O      3.305699    3.822345    6.000000    ( 0.0000,  0.0000,  0.0000)
  38 Ti     1.412752    3.822345    6.752957    ( 0.0000,  0.0000,  0.0000)
  39 Ti     6.583625    5.733518    6.752957    ( 0.0000,  0.0000,  0.0000)
  40 Ti     9.522250    5.733518    7.640878    ( 0.0000,  0.0000,  0.0000)
  41 Ti     4.351376    3.822345    7.640878    ( 0.0000,  0.0000,  0.0000)
  42 O      9.861551    3.822345    7.505914    ( 0.0000,  0.0000,  0.0000)
  43 O      4.690678    5.733518    7.505914    ( 0.0000,  0.0000,  0.0000)
  44 O      7.629303    5.733518    8.393834    ( 0.0000,  0.0000,  0.0000)
  45 O      2.458430    3.822345    8.393834    ( 0.0000,  0.0000,  0.0000)
  46 O      6.244323    3.822345    6.887921    ( 0.0000,  0.0000,  0.0000)
  47 O      1.073450    5.733518    6.887921    ( 0.0000,  0.0000,  0.0000)
  48 O      9.831491    5.733496    9.597148    ( 0.0000,  0.0000,  0.0000)
  49 O      4.659873    3.816199    9.599295    ( 0.0000,  0.0000,  0.0000)
  50 Ti     2.739600    3.773797   10.332307    ( 0.0000,  0.0000,  0.0000)
  51 Ti     7.912651    5.778983   10.328112    ( 0.0000,  0.0000,  0.0000)
  52 Ti     0.556539    5.758736   11.143660    ( 0.0000,  0.0000,  0.0000)
  53 Ti     5.723728    3.795285   11.152237    ( 0.0000,  0.0000,  0.0000)
  54 O      0.927508    3.815191   11.103979    ( 0.0000,  0.0000,  0.0000)
  55 O      6.094495    5.732710   11.101999    ( 0.0000,  0.0000,  0.0000)
  56 O      9.028182    5.699817   11.930153    ( 0.0000,  0.0000,  0.0000)
  57 O      3.846337    3.827231   11.932114    ( 0.0000,  0.0000,  0.0000)
  58 O      7.546600    3.808014   10.453488    ( 0.0000,  0.0000,  0.0000)
  59 O      2.382559    5.735435   10.451837    ( 0.0000,  0.0000,  0.0000)
  60 O      0.891381    5.810642   13.227088    ( 0.0000,  0.0000,  0.0000)
  61 O      6.048649    3.778408   13.209182    ( 0.0000,  0.0000,  0.0000)
  62 Ti     4.070365    3.660159   13.799658    ( 0.0000,  0.0000,  0.0000)
  63 Ti     9.296776    5.847590   13.786690    ( 0.0000,  0.0000,  0.0000)
  64 Ti     1.992440    5.812416   14.719773    ( 0.0000,  0.0000,  0.0000)
  65 Ti     7.163268    3.751651   14.669826    ( 0.0000,  0.0000,  0.0000)
  66 O      2.342851    3.809471   14.602108    ( 0.0000,  0.0000,  0.0000)
  67 O      7.532354    5.717841   14.604158    ( 0.0000,  0.0000,  0.0000)
  68 O     -0.056084    5.740874   15.621438    ( 0.0000,  0.0000,  0.0000)
  69 O      5.094306    3.782700   15.600381    ( 0.0000,  0.0000,  0.0000)
  70 O      8.928182    3.756308   13.970001    ( 0.0000,  0.0000,  0.0000)
  71 O      3.708088    5.796733   13.968321    ( 0.0000,  0.0000,  0.0000)
  72 O      8.476572    9.555862    6.000000    ( 0.0000,  0.0000,  0.0000)
  73 O      3.305699    7.644690    6.000000    ( 0.0000,  0.0000,  0.0000)
  74 Ti     1.412752    7.644690    6.752957    ( 0.0000,  0.0000,  0.0000)
  75 Ti     6.583625    9.555862    6.752957    ( 0.0000,  0.0000,  0.0000)
  76 Ti     9.522250    9.555862    7.640878    ( 0.0000,  0.0000,  0.0000)
  77 Ti     4.351376    7.644690    7.640878    ( 0.0000,  0.0000,  0.0000)
  78 O      9.861551    7.644690    7.505914    ( 0.0000,  0.0000,  0.0000)
  79 O      4.690678    9.555862    7.505914    ( 0.0000,  0.0000,  0.0000)
  80 O      7.629303    9.555862    8.393834    ( 0.0000,  0.0000,  0.0000)
  81 O      2.458430    7.644690    8.393834    ( 0.0000,  0.0000,  0.0000)
  82 O      6.244323    7.644690    6.887921    ( 0.0000,  0.0000,  0.0000)
  83 O      1.073450    9.555862    6.887921    ( 0.0000,  0.0000,  0.0000)
  84 O      9.814487    9.557011    9.580730    ( 0.0000,  0.0000,  0.0000)
  85 O      4.642450    7.633301    9.609140    ( 0.0000,  0.0000,  0.0000)
  86 Ti     2.840760    7.640652   10.360547    ( 0.0000,  0.0000,  0.0000)
  87 Ti     7.926018    9.569598   10.384915    ( 0.0000,  0.0000,  0.0000)
  88 Ti     0.499485    9.535195   11.124864    ( 0.0000,  0.0000,  0.0000)
  89 Ti     5.668194    7.641180   11.295114    ( 0.0000,  0.0000,  0.0000)
  90 O      0.897285    7.638317   11.086930    ( 0.0000,  0.0000,  0.0000)
  91 O      6.089693    9.539971   11.097257    ( 0.0000,  0.0000,  0.0000)
  92 O      9.042945    9.557408   11.943922    ( 0.0000,  0.0000,  0.0000)
  93 O      7.569726    7.633657   10.456895    ( 0.0000,  0.0000,  0.0000)
  94 O      2.390353    9.547841   10.445444    ( 0.0000,  0.0000,  0.0000)
  95 O      0.962692    9.522081   13.079427    ( 0.0000,  0.0000,  0.0000)
  96 O      6.055958    7.633008   13.220612    ( 0.0000,  0.0000,  0.0000)
  97 Ti     4.341214    7.653584   14.057044    ( 0.0000,  0.0000,  0.0000)
  98 Ti     9.369596    9.587239   13.980596    ( 0.0000,  0.0000,  0.0000)
  99 Ti     1.829471    9.523324   14.630109    ( 0.0000,  0.0000,  0.0000)
 100 Ti     7.101893    7.640606   15.045320    ( 0.0000,  0.0000,  0.0000)
 101 O      2.347568    7.668422   15.004258    ( 0.0000,  0.0000,  0.0000)
 102 O      7.562189    9.531661   14.815794    ( 0.0000,  0.0000,  0.0000)
 103 O      0.193102    9.576900   15.449911    ( 0.0000,  0.0000,  0.0000)
 104 O      5.375916    7.634086   15.612613    ( 0.0000,  0.0000,  0.0000)
 105 O      9.035297    7.655079   13.941338    ( 0.0000,  0.0000,  0.0000)
 106 O      3.850744    9.511896   13.972473    ( 0.0000,  0.0000,  0.0000)
 107 V      8.983163    5.792247   16.854351    ( 0.0000,  0.0000,  0.0000)
 108 V      3.802948    3.681694   16.844409    ( 0.0000,  0.0000,  0.0000)
 109 O      7.937417    4.218957   16.713780    ( 0.0000,  0.0000,  0.0000)
 110 O      4.511749    3.629400   18.268109    ( 0.0000,  0.0000,  0.0000)
 111 O      8.004414    7.261241   16.706795    ( 0.0000,  0.0000,  0.0000)
 112 O      9.679291    5.751223   18.284121    ( 0.0000,  0.0000,  0.0000)
 113 O      2.780949    5.281303   16.730289    ( 0.0000,  0.0000,  0.0000)
 114 O      8.185268   11.481407   16.747885    ( 0.0000,  0.0000,  0.0000)
 115 O      2.818038    2.223485   16.662259    ( 0.0000,  0.0000,  0.0000)
 116 H      7.926085    3.571689   17.454971    ( 0.0000,  0.0000,  0.0000)
 117 H      2.831881    5.946726   17.454153    ( 0.0000,  0.0000,  0.0000)
 118 H      9.052205    0.484716   16.604638    ( 0.0000,  0.0000,  0.0000)
 119 H      8.454408   10.566485   17.005727    ( 0.0000,  0.0000,  0.0000)

Unit cell:
           periodic     x           y           z      points  spacing
  1. axis:    yes   10.341746    0.000000    0.000000    54     0.1915
  2. axis:    yes   -0.000000   11.467000    0.000000    60     0.1911
  3. axis:    no     0.000000    0.000000   23.497201   125     0.1880

  Lengths:  10.341746  11.467000  23.497201
  Angles:   90.000000  90.000000  90.000000

Effective grid spacing dv^(1/3) = 0.1902

                     log10-error:    total        iterations:
           time      wfs    density  energy       fermi  poisson
iter:   1  14:36:49  -0.02   +inf  -1056.543710    4             
iter:   2  14:37:28  -0.97  -0.93  -1003.554239    4             
iter:   3  14:38:06  +0.30  -0.98  -883.121105    36            
iter:   4  14:38:45  -0.12  -1.26  -886.434436    4             
iter:   5  14:39:24  -1.40  -1.34  -895.490309    30            
iter:   6  14:40:02  -0.69  -1.32  -888.382795    5             
iter:   7  14:40:41  -0.72  -1.53  -892.145710    4             
iter:   8  14:41:20  -1.75  -1.85  -889.906528    5             
iter:   9  14:41:59  -1.13  -2.04  -893.009962    4             
iter:  10  14:42:37  -1.59  -1.94  -889.459598    5             
iter:  11  14:43:16  -2.15  -2.30  -889.585503    3             
iter:  12  14:43:55  -3.02  -2.33  -889.651250    3             
iter:  13  14:44:34  -2.92  -2.45  -889.601452    3             
iter:  14  14:45:12  -3.00  -2.62  -889.672062    3             
iter:  15  14:45:51  -3.72  -2.88  -889.668945    2             
iter:  16  14:46:30  -3.44  -2.93  -889.659366    3             
iter:  17  14:47:08  -4.39  -3.10  -889.663531    3             
iter:  18  14:47:47  -4.26  -3.13  -889.667449    2             
iter:  19  14:48:26  -4.19  -3.19  -889.661113    3             
iter:  20  14:49:05  -4.95  -3.40  -889.661897    2             
iter:  21  14:49:43  -5.22  -3.51  -889.662174    2             
iter:  22  14:50:22  -4.67  -3.56  -889.661909    3             
iter:  23  14:51:01  -5.70  -3.62  -889.661810    2             
iter:  24  14:51:40  -4.94  -3.65  -889.662060    2             
iter:  25  14:52:18  -5.66  -3.62  -889.661696    2             
iter:  26  14:52:57  -4.66  -3.70  -889.663287    2             
iter:  27  14:53:36  -5.74  -3.78  -889.662873    2             
iter:  28  14:54:15  -5.74  -3.96  -889.662805    2             
iter:  29  14:54:53  -5.58  -3.98  -889.663313    2             
iter:  30  14:55:32  -6.23  -4.21  -889.663154    2             
iter:  31  14:56:11  -6.24  -4.30  -889.663124    2             
iter:  32  14:56:49  -6.14  -4.32  -889.663311    2             
iter:  33  14:57:28  -6.39  -4.50  -889.663169    2             
iter:  34  14:58:07  -7.17  -4.45  -889.663210    2             
iter:  35  14:58:45  -6.39  -4.66  -889.663316    2             
iter:  36  14:59:24  -6.89  -4.61  -889.663194    2             
iter:  37  15:00:03  -7.59  -5.09  -889.663198    2             

Converged after 37 iterations.

Dipole moment: (7.607553, 23.577340, -0.537254) |e|*Ang

Energy contributions relative to reference atoms: (reference = -1046941.945402)

Kinetic:       +606.614489
Potential:     -818.471723
External:        +0.000000
XC:            -688.473189
Entropy (-ST):   -0.054842
Local:          +10.694646
--------------------------
Free energy:   -889.690618
Extrapolated:  -889.663198

Fermi level: 0.69816

Showing all kpts
 Kpt  Band  Eigenvalues  Occupancy
  0   463     -1.31271    1.00000
  0   464      0.33183    0.97499
  0   465      1.14275    0.01159
  0   466      1.20494    0.00626

  1   463     -1.31207    1.00000
  1   464      0.33175    0.97501
  1   465      1.14347    0.01151
  1   466      1.20484    0.00626



Forces in eV/Ang:
  0 O    -1.97395    0.01527    1.32101
  1 O    -1.98690    0.00897    1.31500
  2 Ti    3.77516   -0.06866    1.69359
  3 Ti    3.77722   -0.09030    1.67723
  4 Ti   -1.81967   -0.07588   -1.51766
  5 Ti   -1.86362   -0.04245   -1.69453
  6 O     0.92122    0.04530   -0.20206
  7 O     0.90058    0.06918   -0.20171
  8 O    -0.57628   -0.00356   -0.56164
  9 O    -0.55189   -0.00980   -0.41553
 10 O    -0.29655    0.04008   -0.97529
 11 O    -0.27735    0.11203   -0.92871
 12 O     0.01532    0.00151    0.02068
 13 O    -0.26397    0.00076   -0.10090
 14 Ti   -0.00927    0.24914   -0.36966
 15 Ti   -0.36516   -0.02667   -0.24477
 16 Ti    0.27076    0.06888   -0.09627
 17 Ti    0.41158   -0.16602    0.26750
 18 O     0.14388   -0.14381   -0.02308
 19 O     0.23443    0.00703   -0.04614
 20 O     0.04975   -0.00275    0.49846
 21 O     0.00449    0.00605    0.43435
 22 O    -0.00968    0.10427    0.08953
 23 O    -0.02756   -0.16487    0.21706
 24 O     0.38292   -0.01338   -0.07705
 25 O    -0.43897   -0.02443   -0.35218
 26 Ti   -0.11892    0.38165   -0.48700
 27 Ti   -0.57009    0.02612   -0.13416
 28 Ti    0.37079    0.23668   -0.58258
 29 Ti    0.91059   -0.12458    0.35717
 30 O     0.10120   -0.20970    0.21929
 31 O     0.12664   -0.07036    0.19838
 32 O    -0.39804    0.06576    0.19670
 33 O    -0.22946   -0.02587    0.59433
 34 O    -0.36142    0.05755    0.09861
 35 O    -0.33521   -0.39522    0.17078
 36 O    -2.02127   -0.00857    1.36981
 37 O    -2.02426    0.00251    1.37061
 38 Ti    3.57318   -0.02454    1.46471
 39 Ti    3.57978    0.05318    1.47710
 40 Ti   -1.59850    0.05256   -1.72414
 41 Ti   -1.58600   -0.01759   -1.65985
 42 O     0.94710    0.04753   -0.20847
 43 O     0.94782   -0.07486   -0.20563
 44 O    -0.55742   -0.02666   -0.57726
 45 O    -0.56664    0.00658   -0.51019
 46 O    -0.31267    0.07616   -0.92118
 47 O    -0.31550   -0.11495   -0.90187
 48 O    -0.25530   -0.00007   -0.14173
 49 O    -0.36409   -0.01601   -0.16859
 50 Ti    0.22603    0.16264   -0.21683
 51 Ti    0.05155   -0.19747   -0.13030
 52 Ti   -0.13810   -0.24516    0.44422
 53 Ti    0.07089    0.18287    0.43436
 54 O     0.05560    0.06854    0.04373
 55 O    -0.06742   -0.18002    0.09740
 56 O     0.10504   -0.01488   -0.15337
 57 O     0.03668   -0.00598   -0.12611
 58 O     0.16174    0.10820    0.06616
 59 O     0.45409    0.07626    0.34415
 60 O    -0.20722    0.02883   -0.56508
 61 O    -0.43102   -0.02718   -0.57468
 62 Ti    0.61188    0.57222    0.06837
 63 Ti    0.29686   -0.63534    0.23604
 64 Ti   -0.41162   -0.51665    0.83707
 65 Ti   -0.14044    0.29848    0.74496
 66 O    -0.40860   -0.03663    0.45094
 67 O    -0.25505   -0.00344    0.35206
 68 O     0.11376    0.02408   -0.26064
 69 O     0.06879   -0.06515   -0.21118
 70 O     0.29972    0.27368   -0.02841
 71 O     0.49559   -0.01255   -0.49417
 72 O    -1.99725   -0.00452    1.30792
 73 O    -1.91211   -0.01477    1.25036
 74 Ti    3.84647    0.08305    1.74981
 75 Ti    3.79062    0.04108    1.71240
 76 Ti   -1.92605    0.01116   -1.88264
 77 Ti   -2.03288    0.07784   -1.45335
 78 O     0.87133   -0.08695   -0.19602
 79 O     0.91329   -0.02698   -0.19399
 80 O    -0.57564   -0.01794   -0.44854
 81 O    -0.41394   -0.01766   -0.74187
 82 O    -0.27294   -0.11859   -0.93689
 83 O    -0.29199    0.00475   -0.92234
 84 O    -0.26968    0.00836   -0.13403
 85 O    -0.11123    0.00515    1.15411
 86 Ti   -0.71624    0.03610   -0.86671
 87 Ti   -0.02924   -0.24170   -0.37703
 88 Ti    0.13435    0.14464    0.38125
 89 Ti    0.98882   -0.01292   -0.51433
 90 O     0.41273    0.06341    0.14377
 91 O    -0.07224    0.20499    0.08682
 92 O     0.09599    0.00662    0.33749
 93 O     0.21621    0.20382    0.05139
 94 O     0.29505   -0.30745    0.33294
 95 O    -0.46527   -0.01999   -0.38872
 96 O    -0.63018   -0.00108   -0.59133
 97 Ti   -0.20597   -0.03592    0.77544
 98 Ti   -0.05680   -0.20868   -0.51784
 99 Ti    0.74387    0.10770    0.49574
100 Ti    0.33135   -0.09460   -0.58222
101 O     0.11703    0.15686   -0.11899
102 O     0.01846    0.17282    0.22296
103 O    -0.13439    0.04529    0.44224
104 O    -0.25980   -0.03360    0.32454
105 O    -0.29888    0.35086    0.15870
106 O    -0.44664   -0.38297   -0.14322
107 V    -0.01091    0.19088    0.27577
108 V     0.02758   -0.24446    0.29289
109 O    -0.16846   -0.33968    0.10215
110 O    -0.13970    0.13512   -0.19128
111 O     0.36500   -0.21586    0.14140
112 O    -0.13437    0.02731   -0.14086
113 O    -0.08003    0.31289    0.14050
114 O     0.51338   -0.17985   -0.00123
115 O     0.30837    0.30082    0.23486
116 H     0.00491    0.27131   -0.29735
117 H    -0.01024   -0.29107   -0.30396
118 H    -0.34488   -0.11784    0.03991
119 H    -0.13509    0.35583   -0.10467

System changes: positions 

Initializing position-dependent things.

Density initialized from wave functions
                                                
                                                
                                                
                                                
                                                
                                                
                                   H            
                            O      O            
              O   H  O          O               
                  Ti O   Ti     OV              
                  O    O O   HTi    Ti          
           O    O  V   Ti                       
                Oi    O O  O O    O             
         O     O    O Ti   Ti H   TiO           
             TiTi   Ti    OOO   O               
              O   OO     Tii    Tii             
           OTi     Oi     O  O O     O          
                 O      Ti    TiO               
            O   TiO      O  O  O   O Ti         
          Ti    O    O Oi     Ti    O           
          O   O Ti   Ti     TiO   O             
              O O   O O   O      OTi            
                    Ti     Oi     O             
             Oi     O    O      Ti              
           O      Ti     Ti    O                
           Ti          O     O                  
               O                                
                                                
                                                
                                                
                                                

Positions:
   0 O      8.476572    1.911173    6.000000    ( 0.0000,  0.0000,  0.0000)
   1 O      3.305699    0.000000    6.000000    ( 0.0000,  0.0000,  0.0000)
   2 Ti     1.412752    0.000000    6.752957    ( 0.0000,  0.0000,  0.0000)
   3 Ti     6.583625    1.911173    6.752957    ( 0.0000,  0.0000,  0.0000)
   4 Ti     9.522250    1.911173    7.640878    ( 0.0000,  0.0000,  0.0000)
   5 Ti     4.351376    0.000000    7.640878    ( 0.0000,  0.0000,  0.0000)
   6 O      9.861551    0.000000    7.505914    ( 0.0000,  0.0000,  0.0000)
   7 O      4.690678    1.911173    7.505914    ( 0.0000,  0.0000,  0.0000)
   8 O      7.629303    1.911173    8.393834    ( 0.0000,  0.0000,  0.0000)
   9 O      2.458430    0.000000    8.393834    ( 0.0000,  0.0000,  0.0000)
  10 O      6.244323    0.000000    6.887921    ( 0.0000,  0.0000,  0.0000)
  11 O      1.073450    1.911173    6.887921    ( 0.0000,  0.0000,  0.0000)
  12 O      9.814042    1.916330    9.609301    ( 0.0000,  0.0000,  0.0000)
  13 O      4.644207   11.459924    9.592782    ( 0.0000,  0.0000,  0.0000)
  14 Ti     2.783331   11.444074   10.374670    ( 0.0000,  0.0000,  0.0000)
  15 Ti     7.991236    1.901593   10.353915    ( 0.0000,  0.0000,  0.0000)
  16 Ti     0.515983    1.893523   11.266398    ( 0.0000,  0.0000,  0.0000)
  17 Ti     5.675913    0.008914   11.185648    ( 0.0000,  0.0000,  0.0000)
  18 O      0.919193   -0.001503   11.094751    ( 0.0000,  0.0000,  0.0000)
  19 O      6.073500    1.901361   11.099293    ( 0.0000,  0.0000,  0.0000)
  20 O      9.035562    1.891239   11.967015    ( 0.0000,  0.0000,  0.0000)
  21 O      3.872592   11.430590   11.960731    ( 0.0000,  0.0000,  0.0000)
  22 O      7.558486   -0.001000   10.451133    ( 0.0000,  0.0000,  0.0000)
  23 O      2.395776    1.902313   10.459554    ( 0.0000,  0.0000,  0.0000)
  24 O      0.893403    1.903462   13.213774    ( 0.0000,  0.0000,  0.0000)
  25 O      6.125830   11.441476   13.135766    ( 0.0000,  0.0000,  0.0000)
  26 Ti     4.251305   11.393332   14.001013    ( 0.0000,  0.0000,  0.0000)
  27 Ti     9.478565    1.863339   13.983227    ( 0.0000,  0.0000,  0.0000)
  28 Ti     1.901865    1.822708   15.024233    ( 0.0000,  0.0000,  0.0000)
  29 Ti     7.042866   -0.001551   14.757309    ( 0.0000,  0.0000,  0.0000)
  30 O      2.389449   11.405847   14.830385    ( 0.0000,  0.0000,  0.0000)
  31 O      7.506457    1.887941   14.836141    ( 0.0000,  0.0000,  0.0000)
  32 O      0.161127    1.742251   15.604817    ( 0.0000,  0.0000,  0.0000)
  33 O      5.362935   11.407821   15.495328    ( 0.0000,  0.0000,  0.0000)
  34 O      9.012845   -0.003774   13.950590    ( 0.0000,  0.0000,  0.0000)
  35 O      3.849971    1.842806   13.945211    ( 0.0000,  0.0000,  0.0000)
  36 O      8.476572    5.733518    6.000000    ( 0.0000,  0.0000,  0.0000)
  37 O      3.305699    3.822345    6.000000    ( 0.0000,  0.0000,  0.0000)
  38 Ti     1.412752    3.822345    6.752957    ( 0.0000,  0.0000,  0.0000)
  39 Ti     6.583625    5.733518    6.752957    ( 0.0000,  0.0000,  0.0000)
  40 Ti     9.522250    5.733518    7.640878    ( 0.0000,  0.0000,  0.0000)
  41 Ti     4.351376    3.822345    7.640878    ( 0.0000,  0.0000,  0.0000)
  42 O      9.861551    3.822345    7.505914    ( 0.0000,  0.0000,  0.0000)
  43 O      4.690678    5.733518    7.505914    ( 0.0000,  0.0000,  0.0000)
  44 O      7.629303    5.733518    8.393834    ( 0.0000,  0.0000,  0.0000)
  45 O      2.458430    3.822345    8.393834    ( 0.0000,  0.0000,  0.0000)
  46 O      6.244323    3.822345    6.887921    ( 0.0000,  0.0000,  0.0000)
  47 O      1.073450    5.733518    6.887921    ( 0.0000,  0.0000,  0.0000)
  48 O      9.827843    5.733495    9.595123    ( 0.0000,  0.0000,  0.0000)
  49 O      4.654671    3.815970    9.596886    ( 0.0000,  0.0000,  0.0000)
  50 Ti     2.742829    3.776120   10.329210    ( 0.0000,  0.0000,  0.0000)
  51 Ti     7.913387    5.776162   10.326250    ( 0.0000,  0.0000,  0.0000)
  52 Ti     0.554566    5.755234   11.150006    ( 0.0000,  0.0000,  0.0000)
  53 Ti     5.724740    3.797897   11.158442    ( 0.0000,  0.0000,  0.0000)
  54 O      0.928302    3.816170   11.104603    ( 0.0000,  0.0000,  0.0000)
  55 O      6.093532    5.730138   11.103391    ( 0.0000,  0.0000,  0.0000)
  56 O      9.029683    5.699604   11.927962    ( 0.0000,  0.0000,  0.0000)
  57 O      3.846861    3.827145   11.930312    ( 0.0000,  0.0000,  0.0000)
  58 O      7.548911    3.809560   10.454433    ( 0.0000,  0.0000,  0.0000)
  59 O      2.389046    5.736524   10.456754    ( 0.0000,  0.0000,  0.0000)
  60 O      0.888421    5.811053   13.219016    ( 0.0000,  0.0000,  0.0000)
  61 O      6.042492    3.778020   13.200973    ( 0.0000,  0.0000,  0.0000)
  62 Ti     4.079107    3.668334   13.800635    ( 0.0000,  0.0000,  0.0000)
  63 Ti     9.301016    5.838514   13.790062    ( 0.0000,  0.0000,  0.0000)
  64 Ti     1.986560    5.805035   14.731731    ( 0.0000,  0.0000,  0.0000)
  65 Ti     7.161261    3.755915   14.680468    ( 0.0000,  0.0000,  0.0000)
  66 O      2.337014    3.808948   14.608550    ( 0.0000,  0.0000,  0.0000)
  67 O      7.528711    5.717792   14.609187    ( 0.0000,  0.0000,  0.0000)
  68 O     -0.054459    5.741218   15.617715    ( 0.0000,  0.0000,  0.0000)
  69 O      5.095289    3.781769   15.597364    ( 0.0000,  0.0000,  0.0000)
  70 O      8.932463    3.760217   13.969595    ( 0.0000,  0.0000,  0.0000)
  71 O      3.715168    5.796554   13.961261    ( 0.0000,  0.0000,  0.0000)
  72 O      8.476572    9.555862    6.000000    ( 0.0000,  0.0000,  0.0000)
  73 O      3.305699    7.644690    6.000000    ( 0.0000,  0.0000,  0.0000)
  74 Ti     1.412752    7.644690    6.752957    ( 0.0000,  0.0000,  0.0000)
  75 Ti     6.583625    9.555862    6.752957    ( 0.0000,  0.0000,  0.0000)
  76 Ti     9.522250    9.555862    7.640878    ( 0.0000,  0.0000,  0.0000)
  77 Ti     4.351376    7.644690    7.640878    ( 0.0000,  0.0000,  0.0000)
  78 O      9.861551    7.644690    7.505914    ( 0.0000,  0.0000,  0.0000)
  79 O      4.690678    9.555862    7.505914    ( 0.0000,  0.0000,  0.0000)
  80 O      7.629303    9.555862    8.393834    ( 0.0000,  0.0000,  0.0000)
  81 O      2.458430    7.644690    8.393834    ( 0.0000,  0.0000,  0.0000)
  82 O      6.244323    7.644690    6.887921    ( 0.0000,  0.0000,  0.0000)
  83 O      1.073450    9.555862    6.887921    ( 0.0000,  0.0000,  0.0000)
  84 O      9.810634    9.557130    9.578815    ( 0.0000,  0.0000,  0.0000)
  85 O      4.640861    7.633374    9.625627    ( 0.0000,  0.0000,  0.0000)
  86 Ti     2.830528    7.641168   10.348165    ( 0.0000,  0.0000,  0.0000)
  87 Ti     7.925601    9.566145   10.379529    ( 0.0000,  0.0000,  0.0000)
  88 Ti     0.501404    9.537261   11.130310    ( 0.0000,  0.0000,  0.0000)
  89 Ti     5.682320    7.640995   11.287767    ( 0.0000,  0.0000,  0.0000)
  90 O      0.903181    7.639223   11.088984    ( 0.0000,  0.0000,  0.0000)
  91 O      6.088661    9.542900   11.098497    ( 0.0000,  0.0000,  0.0000)
  92 O      9.044317    9.557503   11.948744    ( 0.0000,  0.0000,  0.0000)
  93 O      7.572814    7.636568   10.457629    ( 0.0000,  0.0000,  0.0000)
  94 O      2.394568    9.543449   10.450201    ( 0.0000,  0.0000,  0.0000)
  95 O      0.956045    9.521795   13.073874    ( 0.0000,  0.0000,  0.0000)
  96 O      6.046955    7.632992   13.212164    ( 0.0000,  0.0000,  0.0000)
  97 Ti     4.338271    7.653071   14.068121    ( 0.0000,  0.0000,  0.0000)
  98 Ti     9.368785    9.584258   13.973198    ( 0.0000,  0.0000,  0.0000)
  99 Ti     1.840098    9.524863   14.637191    ( 0.0000,  0.0000,  0.0000)
 100 Ti     7.106626    7.639254   15.037002    ( 0.0000,  0.0000,  0.0000)
 101 O      2.349240    7.670663   15.002558    ( 0.0000,  0.0000,  0.0000)
 102 O      7.562453    9.534130   14.818979    ( 0.0000,  0.0000,  0.0000)
 103 O      0.191182    9.577547   15.456229    ( 0.0000,  0.0000,  0.0000)
 104 O      5.372205    7.633606   15.617250    ( 0.0000,  0.0000,  0.0000)
 105 O      9.031027    7.660092   13.943605    ( 0.0000,  0.0000,  0.0000)
 106 O      3.844363    9.506425   13.970427    ( 0.0000,  0.0000,  0.0000)
 107 V      8.983007    5.794974   16.858291    ( 0.0000,  0.0000,  0.0000)
 108 V      3.803342    3.678202   16.848593    ( 0.0000,  0.0000,  0.0000)
 109 O      7.935011    4.214104   16.715239    ( 0.0000,  0.0000,  0.0000)
 110 O      4.509753    3.631330   18.265376    ( 0.0000,  0.0000,  0.0000)
 111 O      8.009628    7.258157   16.708815    ( 0.0000,  0.0000,  0.0000)
 112 O      9.677371    5.751614   18.282109    ( 0.0000,  0.0000,  0.0000)
 113 O      2.779805    5.285773   16.732296    ( 0.0000,  0.0000,  0.0000)
 114 O      8.192602   11.478838   16.747867    ( 0.0000,  0.0000,  0.0000)
 115 O      2.822443    2.227783   16.665615    ( 0.0000,  0.0000,  0.0000)
 116 H      7.926156    3.575565   17.450723    ( 0.0000,  0.0000,  0.0000)
 117 H      2.831734    5.942568   17.449811    ( 0.0000,  0.0000,  0.0000)
 118 H      9.047278    0.483033   16.605208    ( 0.0000,  0.0000,  0.0000)
 119 H      8.452478   10.571568   17.004232    ( 0.0000,  0.0000,  0.0000)

Unit cell:
           periodic     x           y           z      points  spacing
  1. axis:    yes   10.341746    0.000000    0.000000    54     0.1915
  2. axis:    yes   -0.000000   11.467000    0.000000    60     0.1911
  3. axis:    no     0.000000    0.000000   23.497201   125     0.1880

  Lengths:  10.341746  11.467000  23.497201
  Angles:   90.000000  90.000000  90.000000

Effective grid spacing dv^(1/3) = 0.1902

                     log10-error:    total        iterations:
           time      wfs    density  energy       fermi  poisson
iter:   1  15:01:05  -2.50   +inf  -889.963367    3             
iter:   2  15:01:44  -3.48  -2.91  -889.955967    2             
iter:   3  15:02:23  -3.32  -2.94  -889.928703    2             
iter:   4  15:03:02  -4.49  -3.18  -889.927272    2             
iter:   5  15:03:41  -4.32  -3.19  -889.920873    2             
iter:   6  15:04:20  -3.84  -3.36  -889.924015    2             
iter:   7  15:04:58  -4.84  -3.44  -889.921204    2             
iter:   8  15:05:37  -5.51  -3.69  -889.920702    2             
iter:   9  15:06:16  -5.57  -3.78  -889.919741    2             
iter:  10  15:06:55  -5.39  -3.95  -889.919992    2             
iter:  11  15:07:34  -6.52  -4.08  -889.920019    2             
iter:  12  15:08:13  -6.32  -4.10  -889.920216    2             
iter:  13  15:08:51  -5.98  -4.21  -889.920033    2             
iter:  14  15:09:30  -6.86  -4.43  -889.919933    2             
iter:  15  15:10:09  -7.14  -4.54  -889.919910    1             
iter:  16  15:10:48  -7.07  -4.64  -889.919861    2             
iter:  17  15:11:27  -7.35  -4.80  -889.919819    2             
iter:  18  15:12:06  -7.53  -5.00  -889.919845    2             

Converged after 18 iterations.

Dipole moment: (7.499430, 23.869749, -0.511812) |e|*Ang

Energy contributions relative to reference atoms: (reference = -1046941.945402)

Kinetic:       +602.349678
Potential:     -814.943449
External:        +0.000000
XC:            -687.989680
Entropy (-ST):   -0.085768
Local:          +10.706489
--------------------------
Free energy:   -889.962729
Extrapolated:  -889.919845

Fermi level: 0.74339

Showing all kpts
 Kpt  Band  Eigenvalues  Occupancy
  0   463     -1.31158    1.00000
  0   464      0.43354    0.95683
  0   465      1.14190    0.01825
  0   466      1.20357    0.00993

  1   463     -1.31089    1.00000
  1   464      0.43347    0.95686
  1   465      1.14274    0.01810
  1   466      1.20326    0.00996



Forces in eV/Ang:
  0 O    -1.97798    0.01500    1.32216
  1 O    -1.99468    0.00606    1.30890
  2 Ti    3.76365   -0.05661    1.67993
  3 Ti    3.75526   -0.08783    1.65750
  4 Ti   -1.79291   -0.07515   -1.49817
  5 Ti   -1.84376   -0.02483   -1.66276
  6 O     0.92155    0.04756   -0.20842
  7 O     0.90457    0.06811   -0.20983
  8 O    -0.58076   -0.00085   -0.55117
  9 O    -0.57995   -0.01204   -0.43724
 10 O    -0.29264    0.03381   -0.97222
 11 O    -0.27664    0.10806   -0.92872
 12 O    -0.00509    0.00199    0.03307
 13 O    -0.20891    0.00711   -0.03336
 14 Ti    0.06317    0.13498   -0.23562
 15 Ti   -0.23537   -0.03099   -0.13253
 16 Ti    0.17858    0.03058   -0.02209
 17 Ti    0.26133   -0.14344    0.26242
 18 O     0.12469   -0.10094   -0.04261
 19 O     0.21804    0.06196   -0.05833
 20 O     0.03466    0.00701    0.34024
 21 O    -0.02104    0.01271    0.26042
 22 O     0.01892    0.05343    0.07048
 23 O    -0.01351   -0.08644    0.19619
 24 O     0.29363   -0.01785   -0.02630
 25 O    -0.26273   -0.01068   -0.07686
 26 Ti    0.05967    0.23938   -0.30288
 27 Ti   -0.31184   -0.01520   -0.09768
 28 Ti    0.07989    0.13885   -0.48815
 29 Ti    0.33999   -0.16994    0.29276
 30 O     0.08648   -0.13269    0.22953
 31 O     0.11864    0.09900    0.18003
 32 O    -0.19275    0.08907    0.01743
 33 O     0.01167   -0.01316    0.27169
 34 O    -0.37490    0.05798    0.09495
 35 O    -0.34695   -0.07503    0.16503
 36 O    -2.03062   -0.00727    1.36466
 37 O    -2.02943    0.00517    1.36350
 38 Ti    3.56847   -0.03376    1.45624
 39 Ti    3.58440    0.03897    1.45949
 40 Ti   -1.58666    0.04653   -1.71671
 41 Ti   -1.57903   -0.03597   -1.65566
 42 O     0.94548    0.04608   -0.21224
 43 O     0.93917   -0.03466   -0.19468
 44 O    -0.58297   -0.01834   -0.57640
 45 O    -0.59451    0.00522   -0.53331
 46 O    -0.30890    0.07815   -0.92506
 47 O    -0.30700   -0.09467   -0.90790
 48 O    -0.20520    0.00269   -0.06600
 49 O    -0.27486   -0.01781   -0.07183
 50 Ti    0.20219    0.18571   -0.19860
 51 Ti    0.08265   -0.24242   -0.15185
 52 Ti   -0.03933   -0.16337    0.32623
 53 Ti    0.02868    0.12518    0.29596
 54 O     0.05874    0.06984    0.02436
 55 O     0.00024   -0.16552    0.05868
 56 O     0.06990   -0.00470   -0.04506
 57 O     0.04057   -0.02758   -0.03445
 58 O     0.14062    0.10882    0.06749
 59 O     0.35172   -0.01362    0.34308
 60 O    -0.12674    0.01055   -0.32561
 61 O    -0.25286   -0.02619   -0.29301
 62 Ti    0.42333    0.45273    0.02486
 63 Ti    0.25794   -0.45613    0.13238
 64 Ti   -0.25513   -0.40644    0.57214
 65 Ti   -0.15831    0.21789    0.55321
 66 O    -0.25925    0.04422    0.38274
 67 O    -0.20781   -0.06375    0.30876
 68 O     0.14186    0.02064   -0.23721
 69 O     0.12575   -0.06144   -0.20479
 70 O     0.12858    0.31842    0.04302
 71 O     0.21829   -0.12666   -0.32942
 72 O    -2.01216   -0.00571    1.30208
 73 O    -1.88004   -0.01432    1.27348
 74 Ti    3.78639    0.08109    1.71722
 75 Ti    3.78886    0.05180    1.68774
 76 Ti   -1.89821    0.01834   -1.85549
 77 Ti   -1.99239    0.07625   -1.36951
 78 O     0.88290   -0.08738   -0.20490
 79 O     0.90628   -0.06647   -0.18564
 80 O    -0.60939   -0.02085   -0.45804
 81 O    -0.41098   -0.02137   -0.79968
 82 O    -0.28719   -0.11376   -0.93200
 83 O    -0.28384   -0.01218   -0.91325
 84 O    -0.22821    0.00245   -0.04497
 85 O    -0.10915    0.00309    0.78870
 86 Ti   -0.59769    0.03573   -0.65679
 87 Ti    0.04972   -0.12890   -0.29452
 88 Ti    0.14577    0.11282    0.32948
 89 Ti    0.71364    0.01676   -0.36562
 90 O     0.32225   -0.02007    0.10821
 91 O    -0.00329    0.16940    0.03724
 92 O     0.00150    0.00905    0.18934
 93 O     0.20916    0.12965    0.04859
 94 O     0.25654   -0.15573    0.30988
 95 O    -0.27186   -0.00831    0.00296
 96 O    -0.49743   -0.00160   -0.38265
 97 Ti   -0.16739   -0.02862    0.61002
 98 Ti    0.16133   -0.18240   -0.35308
 99 Ti    0.25938    0.11659    0.21592
100 Ti    0.11178   -0.00502   -0.52944
101 O     0.09038   -0.04798   -0.06827
102 O    -0.00243    0.10443    0.21782
103 O    -0.00487    0.03511    0.21156
104 O    -0.01113   -0.04095    0.28179
105 O    -0.32748    0.05552    0.15251
106 O    -0.42429   -0.25786   -0.13026
107 V    -0.10419    0.07736   -0.01111
108 V    -0.11029   -0.09808   -0.04875
109 O    -0.13719    0.04296   -0.25673
110 O     0.01497    0.10760    0.13152
111 O     0.28939   -0.13450    0.09735
112 O    -0.01650    0.02761    0.11597
113 O    -0.08534   -0.07692   -0.22369
114 O    -0.03844    0.04559   -0.07169
115 O     0.24510    0.21221    0.20919
116 H    -0.00442   -0.05544    0.05154
117 H     0.01437    0.05233    0.05216
118 H     0.06386    0.06494   -0.01025
119 H     0.01991   -0.05032    0.00974

System changes: positions 

Initializing position-dependent things.

Density initialized from wave functions
                                                
                                                
                                                
                                                
                                                
                                                
                                   H            
                            O      O            
              O   H  O          O               
                  Ti O   Oi     OV              
                  O    O     HTi    Ti          
           O    O  V   Ti                       
                Oi    O O  O O    O             
         O     O    O Ti   Ti H   TiO           
             TiTi   Ti    OOO   O               
              O   OO    OTii    Tii             
           OTi     Oi     O  O O     O          
                 O      Ti    TiO               
            O   TiO      O  O  O   O Ti         
          Ti    O    O Oi     Ti    O           
          O   O Ti   Ti     TiO   O             
              O O   O O   O      OTi            
                    Ti     Oi     O             
             Oi     O    O      Ti              
           O      Ti     Ti    O                
           Ti          O     O                  
               O                                
                                                
                                                
                                                
                                                

Positions:
   0 O      8.476572    1.911173    6.000000    ( 0.0000,  0.0000,  0.0000)
   1 O      3.305699    0.000000    6.000000    ( 0.0000,  0.0000,  0.0000)
   2 Ti     1.412752    0.000000    6.752957    ( 0.0000,  0.0000,  0.0000)
   3 Ti     6.583625    1.911173    6.752957    ( 0.0000,  0.0000,  0.0000)
   4 Ti     9.522250    1.911173    7.640878    ( 0.0000,  0.0000,  0.0000)
   5 Ti     4.351376    0.000000    7.640878    ( 0.0000,  0.0000,  0.0000)
   6 O      9.861551    0.000000    7.505914    ( 0.0000,  0.0000,  0.0000)
   7 O      4.690678    1.911173    7.505914    ( 0.0000,  0.0000,  0.0000)
   8 O      7.629303    1.911173    8.393834    ( 0.0000,  0.0000,  0.0000)
   9 O      2.458430    0.000000    8.393834    ( 0.0000,  0.0000,  0.0000)
  10 O      6.244323    0.000000    6.887921    ( 0.0000,  0.0000,  0.0000)
  11 O      1.073450    1.911173    6.887921    ( 0.0000,  0.0000,  0.0000)
  12 O      9.813995    1.916411    9.610612    ( 0.0000,  0.0000,  0.0000)
  13 O      4.634806   11.460175    9.590787    ( 0.0000,  0.0000,  0.0000)
  14 Ti     2.785425   11.450808   10.363464    ( 0.0000,  0.0000,  0.0000)
  15 Ti     7.980075    1.900304   10.347302    ( 0.0000,  0.0000,  0.0000)
  16 Ti     0.524398    1.895153   11.264829    ( 0.0000,  0.0000,  0.0000)
  17 Ti     5.688356    0.002587   11.196918    ( 0.0000,  0.0000,  0.0000)
  18 O      0.924689   -0.006182   11.093092    ( 0.0000,  0.0000,  0.0000)
  19 O      6.082966    1.903550   11.096900    ( 0.0000,  0.0000,  0.0000)
  20 O      9.037171    1.891457   11.982902    ( 0.0000,  0.0000,  0.0000)
  21 O      3.871907   11.431078   11.973334    ( 0.0000,  0.0000,  0.0000)
  22 O      7.559055    0.001713   10.454308    ( 0.0000,  0.0000,  0.0000)
  23 O      2.395080    1.897955   10.468123    ( 0.0000,  0.0000,  0.0000)
  24 O      0.906716    1.902736   13.212223    ( 0.0000,  0.0000,  0.0000)
  25 O      6.113109   11.440903   13.130164    ( 0.0000,  0.0000,  0.0000)
  26 Ti     4.252358   11.404769   13.986507    ( 0.0000,  0.0000,  0.0000)
  27 Ti     9.463053    1.863036   13.978741    ( 0.0000,  0.0000,  0.0000)
  28 Ti     1.907728    1.829470   15.002555    ( 0.0000,  0.0000,  0.0000)
  29 Ti     7.062207   -0.008441   14.770376    ( 0.0000,  0.0000,  0.0000)
  30 O      2.393273   11.399523   14.840119    ( 0.0000,  0.0000,  0.0000)
  31 O      7.511600    1.890754   14.843997    ( 0.0000,  0.0000,  0.0000)
  32 O      0.151156    1.745866   15.607069    ( 0.0000,  0.0000,  0.0000)
  33 O      5.361408   11.407151   15.509663    ( 0.0000,  0.0000,  0.0000)
  34 O      8.996919   -0.001297   13.954683    ( 0.0000,  0.0000,  0.0000)
  35 O      3.835226    1.836905   13.952320    ( 0.0000,  0.0000,  0.0000)
  36 O      8.476572    5.733518    6.000000    ( 0.0000,  0.0000,  0.0000)
  37 O      3.305699    3.822345    6.000000    ( 0.0000,  0.0000,  0.0000)
  38 Ti     1.412752    3.822345    6.752957    ( 0.0000,  0.0000,  0.0000)
  39 Ti     6.583625    5.733518    6.752957    ( 0.0000,  0.0000,  0.0000)
  40 Ti     9.522250    5.733518    7.640878    ( 0.0000,  0.0000,  0.0000)
  41 Ti     4.351376    3.822345    7.640878    ( 0.0000,  0.0000,  0.0000)
  42 O      9.861551    3.822345    7.505914    ( 0.0000,  0.0000,  0.0000)
  43 O      4.690678    5.733518    7.505914    ( 0.0000,  0.0000,  0.0000)
  44 O      7.629303    5.733518    8.393834    ( 0.0000,  0.0000,  0.0000)
  45 O      2.458430    3.822345    8.393834    ( 0.0000,  0.0000,  0.0000)
  46 O      6.244323    3.822345    6.887921    ( 0.0000,  0.0000,  0.0000)
  47 O      1.073450    5.733518    6.887921    ( 0.0000,  0.0000,  0.0000)
  48 O      9.818643    5.733587    9.591663    ( 0.0000,  0.0000,  0.0000)
  49 O      4.642162    3.815223    9.593000    ( 0.0000,  0.0000,  0.0000)
  50 Ti     2.751680    3.783871   10.320560    ( 0.0000,  0.0000,  0.0000)
  51 Ti     7.916662    5.766168   10.319935    ( 0.0000,  0.0000,  0.0000)
  52 Ti     0.552053    5.747557   11.164954    ( 0.0000,  0.0000,  0.0000)
  53 Ti     5.726322    3.803738   11.172267    ( 0.0000,  0.0000,  0.0000)
  54 O      0.930789    3.819147   11.105808    ( 0.0000,  0.0000,  0.0000)
  55 O      6.092973    5.722934   11.106226    ( 0.0000,  0.0000,  0.0000)
  56 O      9.032968    5.699318   11.925124    ( 0.0000,  0.0000,  0.0000)
  57 O      3.848564    3.826147   11.928068    ( 0.0000,  0.0000,  0.0000)
  58 O      7.555104    3.814210   10.457309    ( 0.0000,  0.0000,  0.0000)
  59 O      2.404954    5.736697   10.471441    ( 0.0000,  0.0000,  0.0000)
  60 O      0.882322    5.811658   13.203073    ( 0.0000,  0.0000,  0.0000)
  61 O      6.030177    3.776891   13.186070    ( 0.0000,  0.0000,  0.0000)
  62 Ti     4.098802    3.688707   13.802064    ( 0.0000,  0.0000,  0.0000)
  63 Ti     9.312379    5.817493   13.796597    ( 0.0000,  0.0000,  0.0000)
  64 Ti     1.974330    5.786720   14.758436    ( 0.0000,  0.0000,  0.0000)
  65 Ti     7.154638    3.765914   14.705748    ( 0.0000,  0.0000,  0.0000)
  66 O      2.324668    3.810160   14.625498    ( 0.0000,  0.0000,  0.0000)
  67 O      7.519423    5.715571   14.622761    ( 0.0000,  0.0000,  0.0000)
  68 O     -0.048626    5.742130   15.607369    ( 0.0000,  0.0000,  0.0000)
  69 O      5.100190    3.779110   15.588549    ( 0.0000,  0.0000,  0.0000)
  70 O      8.939402    3.773465   13.970836    ( 0.0000,  0.0000,  0.0000)
  71 O      3.726837    5.792093   13.945783    ( 0.0000,  0.0000,  0.0000)
  72 O      8.476572    9.555862    6.000000    ( 0.0000,  0.0000,  0.0000)
  73 O      3.305699    7.644690    6.000000    ( 0.0000,  0.0000,  0.0000)
  74 Ti     1.412752    7.644690    6.752957    ( 0.0000,  0.0000,  0.0000)
  75 Ti     6.583625    9.555862    6.752957    ( 0.0000,  0.0000,  0.0000)
  76 Ti     9.522250    9.555862    7.640878    ( 0.0000,  0.0000,  0.0000)
  77 Ti     4.351376    7.644690    7.640878    ( 0.0000,  0.0000,  0.0000)
  78 O      9.861551    7.644690    7.505914    ( 0.0000,  0.0000,  0.0000)
  79 O      4.690678    9.555862    7.505914    ( 0.0000,  0.0000,  0.0000)
  80 O      7.629303    9.555862    8.393834    ( 0.0000,  0.0000,  0.0000)
  81 O      2.458430    7.644690    8.393834    ( 0.0000,  0.0000,  0.0000)
  82 O      6.244323    7.644690    6.887921    ( 0.0000,  0.0000,  0.0000)
  83 O      1.073450    9.555862    6.887921    ( 0.0000,  0.0000,  0.0000)
  84 O      9.800522    9.557285    9.576143    ( 0.0000,  0.0000,  0.0000)
  85 O      4.636173    7.633524    9.662441    ( 0.0000,  0.0000,  0.0000)
  86 Ti     2.803961    7.642700   10.318302    ( 0.0000,  0.0000,  0.0000)
  87 Ti     7.927064    9.559682   10.366235    ( 0.0000,  0.0000,  0.0000)
  88 Ti     0.507545    9.542355   11.144842    ( 0.0000,  0.0000,  0.0000)
  89 Ti     5.715165    7.641463   11.270875    ( 0.0000,  0.0000,  0.0000)
  90 O      0.917728    7.639066   11.093912    ( 0.0000,  0.0000,  0.0000)
  91 O      6.087941    9.550446   11.100507    ( 0.0000,  0.0000,  0.0000)
  92 O      9.045175    9.557870   11.958089    ( 0.0000,  0.0000,  0.0000)
  93 O      7.581822    7.642738   10.459731    ( 0.0000,  0.0000,  0.0000)
  94 O      2.405867    9.535512   10.463652    ( 0.0000,  0.0000,  0.0000)
  95 O      0.942789    9.521342   13.070709    ( 0.0000,  0.0000,  0.0000)
  96 O      6.024558    7.632929   13.194040    ( 0.0000,  0.0000,  0.0000)
  97 Ti     4.330786    7.651785   14.095610    ( 0.0000,  0.0000,  0.0000)
  98 Ti     9.373854    9.576233   13.956708    ( 0.0000,  0.0000,  0.0000)
  99 Ti     1.855266    9.529776   14.648780    ( 0.0000,  0.0000,  0.0000)
 100 Ti     7.113253    7.638287   15.013908    ( 0.0000,  0.0000,  0.0000)
 101 O      2.353331    7.670331   14.999211    ( 0.0000,  0.0000,  0.0000)
 102 O      7.562525    9.539173   14.828341    ( 0.0000,  0.0000,  0.0000)
 103 O      0.189886    9.579135   15.467218    ( 0.0000,  0.0000,  0.0000)
 104 O      5.369639    7.631916   15.629665    ( 0.0000,  0.0000,  0.0000)
 105 O      9.017256    7.664948   13.950182    ( 0.0000,  0.0000,  0.0000)
 106 O      3.826023    9.494342   13.964745    ( 0.0000,  0.0000,  0.0000)
 107 V      8.979333    5.799237   16.860226    ( 0.0000,  0.0000,  0.0000)
 108 V      3.799782    3.672776   16.849378    ( 0.0000,  0.0000,  0.0000)
 109 O      7.928878    4.212727   16.707270    ( 0.0000,  0.0000,  0.0000)
 110 O      4.509094    3.636165   18.268291    ( 0.0000,  0.0000,  0.0000)
 111 O      8.022645    7.251719   16.713350    ( 0.0000,  0.0000,  0.0000)
 112 O      9.675675    5.752792   18.284912    ( 0.0000,  0.0000,  0.0000)
 113 O      2.776199    5.285758   16.725786    ( 0.0000,  0.0000,  0.0000)
 114 O      8.195594   11.478894   16.745392    ( 0.0000,  0.0000,  0.0000)
 115 O      2.833461    2.237607   16.674780    ( 0.0000,  0.0000,  0.0000)
 116 H      7.926045    3.575938   17.449997    ( 0.0000,  0.0000,  0.0000)
 117 H      2.832142    5.941922   17.449050    ( 0.0000,  0.0000,  0.0000)
 118 H      9.046576    0.484275   16.605191    ( 0.0000,  0.0000,  0.0000)
 119 H      8.452027   10.572828   17.003687    ( 0.0000,  0.0000,  0.0000)

Unit cell:
           periodic     x           y           z      points  spacing
  1. axis:    yes   10.341746    0.000000    0.000000    54     0.1915
  2. axis:    yes   -0.000000   11.467000    0.000000    60     0.1911
  3. axis:    no     0.000000    0.000000   23.497201   125     0.1880

  Lengths:  10.341746  11.467000  23.497201
  Angles:   90.000000  90.000000  90.000000

Effective grid spacing dv^(1/3) = 0.1902

                     log10-error:    total        iterations:
           time      wfs    density  energy       fermi  poisson
iter:   1  15:13:09  -1.87   +inf  -890.313666    4             
iter:   2  15:13:48  -2.82  -2.59  -890.280428    2             
iter:   3  15:14:26  -3.39  -2.68  -890.256712    3             
iter:   4  15:15:05  -3.00  -2.74  -890.219000    3             
iter:   5  15:15:44  -3.70  -2.95  -890.207197    3             
iter:   6  15:16:23  -3.93  -3.04  -890.200245    3             
iter:   7  15:17:02  -3.97  -3.23  -890.209147    3             
iter:   8  15:17:41  -4.70  -3.37  -890.205159    3             
iter:   9  15:18:20  -4.53  -3.53  -890.201468    3             
iter:  10  15:18:59  -5.01  -3.62  -890.202061    3             
iter:  11  15:19:38  -5.80  -3.72  -890.201414    2             
iter:  12  15:20:16  -5.86  -3.83  -890.201844    2             
iter:  13  15:20:55  -5.92  -3.96  -890.202458    2             
iter:  14  15:21:34  -5.80  -4.07  -890.201685    2             
iter:  15  15:22:13  -6.47  -4.26  -890.201899    2             
iter:  16  15:22:52  -6.01  -4.27  -890.201877    2             
iter:  17  15:23:31  -6.59  -4.39  -890.201545    2             
iter:  18  15:24:10  -6.61  -4.61  -890.201651    2             
iter:  19  15:24:49  -7.44  -4.71  -890.201725    2             

Converged after 19 iterations.

Dipole moment: (7.057217, 24.199356, -0.555593) |e|*Ang

Energy contributions relative to reference atoms: (reference = -1046941.945402)

Kinetic:       +592.978508
Potential:     -807.312451
External:        +0.000000
XC:            -686.522614
Entropy (-ST):   -0.174700
Local:          +10.742182
--------------------------
Free energy:   -890.289075
Extrapolated:  -890.201725

Fermi level: 0.81233

Showing all kpts
 Kpt  Band  Eigenvalues  Occupancy
  0   463     -1.32371    1.00000
  0   464      0.60176    0.89146
  0   465      1.11986    0.04414
  0   466      1.18076    0.02450

  1   463     -1.32314    1.00000
  1   464      0.60170    0.89151
  1   465      1.12092    0.04369
  1   466      1.18002    0.02468



Forces in eV/Ang:
  0 O    -1.97957    0.01382    1.33045
  1 O    -2.00174   -0.00195    1.30533
  2 Ti    3.73061   -0.01732    1.63716
  3 Ti    3.70947   -0.07928    1.60545
  4 Ti   -1.74285   -0.06899   -1.46030
  5 Ti   -1.80331    0.02562   -1.62030
  6 O     0.92011    0.03960   -0.21535
  7 O     0.90611    0.06378   -0.21853
  8 O    -0.58611    0.00441   -0.51661
  9 O    -0.63495   -0.02519   -0.46774
 10 O    -0.28972    0.01112   -0.96048
 11 O    -0.27450    0.09621   -0.92471
 12 O    -0.03027   -0.00203    0.07024
 13 O    -0.05655    0.01536    0.12157
 14 Ti    0.17790    0.00241   -0.00938
 15 Ti    0.03137   -0.01621    0.05772
 16 Ti    0.00463    0.00529    0.07270
 17 Ti   -0.02407   -0.02804    0.18531
 18 O     0.05901   -0.06019   -0.05373
 19 O     0.15507    0.09355   -0.06642
 20 O     0.02875    0.02312    0.02193
 21 O    -0.03384    0.02009   -0.04283
 22 O     0.06218   -0.04667    0.04294
 23 O     0.02031    0.05599    0.14902
 24 O     0.12823   -0.03504    0.03131
 25 O     0.00636    0.01055    0.26252
 26 Ti    0.20313    0.02163    0.04369
 27 Ti    0.01307   -0.01432   -0.00428
 28 Ti   -0.26789   -0.02378   -0.24607
 29 Ti   -0.35888   -0.13806    0.25078
 30 O     0.06452    0.00673    0.20831
 31 O     0.08542    0.29859    0.11623
 32 O     0.09832    0.10398   -0.24851
 33 O     0.25396   -0.00521   -0.14415
 34 O    -0.29401   -0.01950    0.05657
 35 O    -0.31704    0.35079    0.14042
 36 O    -2.04291   -0.00250    1.36180
 37 O    -2.03050    0.01233    1.35786
 38 Ti    3.54626   -0.06297    1.42070
 39 Ti    3.59259   -0.00118    1.40039
 40 Ti   -1.56361    0.02131   -1.71353
 41 Ti   -1.56012   -0.08599   -1.66972
 42 O     0.94051    0.04886   -0.21628
 43 O     0.90963    0.06436   -0.15811
 44 O    -0.64041    0.00188   -0.58036
 45 O    -0.65392    0.00953   -0.58084
 46 O    -0.30681    0.08649   -0.92244
 47 O    -0.28632   -0.03471   -0.91124
 48 O    -0.07206    0.01431    0.07721
 49 O    -0.07262   -0.01540    0.08448
 50 Ti    0.12862    0.15363   -0.09747
 51 Ti    0.17676   -0.32919   -0.13533
 52 Ti    0.07990   -0.08664    0.13493
 53 Ti   -0.04988   -0.00332    0.06391
 54 O     0.05131    0.05068   -0.01697
 55 O     0.10547   -0.03324   -0.01856
 56 O    -0.00157    0.02202    0.07416
 57 O     0.03993   -0.06415    0.07089
 58 O     0.10102    0.07812    0.06148
 59 O     0.17508   -0.09832    0.31195
 60 O     0.01130   -0.02200    0.07510
 61 O     0.03536   -0.02005    0.15170
 62 Ti    0.06632    0.26580   -0.03406
 63 Ti    0.13863   -0.21831   -0.01039
 64 Ti   -0.07195   -0.19002    0.11074
 65 Ti   -0.15780    0.05416    0.24274
 66 O     0.00401    0.15406    0.22424
 67 O    -0.10685   -0.09321    0.17707
 68 O     0.20593    0.01408   -0.19905
 69 O     0.21572   -0.04491   -0.19822
 70 O    -0.11545    0.28697    0.14234
 71 O    -0.16266   -0.24871   -0.04803
 72 O    -2.03279   -0.00974    1.30180
 73 O    -1.80442   -0.01296    1.34357
 74 Ti    3.60782    0.07308    1.59219
 75 Ti    3.77860    0.08093    1.61538
 76 Ti   -1.84471    0.04242   -1.82935
 77 Ti   -1.87143    0.07022   -1.27353
 78 O     0.91327   -0.08132   -0.21694
 79 O     0.88241   -0.16181   -0.15474
 80 O    -0.67817   -0.02768   -0.47569
 81 O    -0.41092   -0.02786   -0.88574
 82 O    -0.33021   -0.09820   -0.90279
 83 O    -0.26571   -0.06121   -0.90067
 84 O    -0.06546   -0.01493    0.17732
 85 O    -0.12843    0.00140    0.14488
 86 Ti   -0.35348   -0.00301   -0.27010
 87 Ti    0.19888    0.11318   -0.14949
 88 Ti    0.08482    0.06515    0.13827
 89 Ti    0.28422    0.03590   -0.09778
 90 O     0.13320   -0.08005    0.03216
 91 O     0.09840    0.04045   -0.04388
 92 O    -0.09015    0.00827   -0.07304
 93 O     0.13346   -0.02397    0.06768
 94 O     0.16003    0.08128    0.27249
 95 O    -0.04443    0.01093    0.39637
 96 O    -0.26670    0.00796    0.01337
 97 Ti   -0.13376   -0.06793    0.38704
 98 Ti    0.31367   -0.09837    0.01282
 99 Ti   -0.29731    0.07286    0.00203
100 Ti   -0.10153    0.09508   -0.33909
101 O     0.04240   -0.32353    0.01900
102 O    -0.01282   -0.04083    0.15051
103 O     0.14268    0.01416   -0.13867
104 O     0.27462   -0.03974    0.15409
105 O    -0.34502   -0.29647    0.11955
106 O    -0.29012   -0.01039   -0.12066
107 V     0.07820   -0.03760    0.04216
108 V     0.11104    0.04862    0.08003
109 O    -0.14970   -0.09353   -0.01851
110 O    -0.03651    0.10338    0.04569
111 O     0.07365    0.07970   -0.07333
112 O    -0.04942    0.01392    0.06718
113 O    -0.09751    0.09576   -0.01566
114 O    -0.20252    0.04811   -0.05188
115 O     0.04042   -0.02346    0.06483
116 H    -0.01636    0.05158   -0.12097
117 H     0.00062   -0.05979   -0.09896
118 H     0.22101    0.13425   -0.03606
119 H     0.05948   -0.11897    0.02364

System changes: positions 

Initializing position-dependent things.

Density initialized from wave functions
                                                
                                                
                                                
                                                
                                                
                                                
                                   H            
                            O      O            
              O   H  O          O               
                  Ti O   Oi     OV              
                 OO    O     HTi    Ti          
           O    O  V   Ti                       
                Oi    O O  O O    O             
         O     O    O Ti   Ti H   TiO           
             TiTi   Ti    OOO   O               
              O   OO    OTii    Tii             
           OTi     Oi     O  O O     O          
                 O      Ti    TiO               
            O   TiO      O  O  O   O Ti         
          Ti    O    O Oi     Ti    O           
          O   O Ti   Ti    OTiO   O             
              O O   O O   O      OTi            
                    Ti     Oi     O             
             Oi     O    O      Ti              
           O      Ti     Ti    O                
           Ti          O     O                  
               O                                
                                                
                                                
                                                
                                                

Positions:
   0 O      8.476572    1.911173    6.000000    ( 0.0000,  0.0000,  0.0000)
   1 O      3.305699    0.000000    6.000000    ( 0.0000,  0.0000,  0.0000)
   2 Ti     1.412752    0.000000    6.752957    ( 0.0000,  0.0000,  0.0000)
   3 Ti     6.583625    1.911173    6.752957    ( 0.0000,  0.0000,  0.0000)
   4 Ti     9.522250    1.911173    7.640878    ( 0.0000,  0.0000,  0.0000)
   5 Ti     4.351376    0.000000    7.640878    ( 0.0000,  0.0000,  0.0000)
   6 O      9.861551    0.000000    7.505914    ( 0.0000,  0.0000,  0.0000)
   7 O      4.690678    1.911173    7.505914    ( 0.0000,  0.0000,  0.0000)
   8 O      7.629303    1.911173    8.393834    ( 0.0000,  0.0000,  0.0000)
   9 O      2.458430    0.000000    8.393834    ( 0.0000,  0.0000,  0.0000)
  10 O      6.244323    0.000000    6.887921    ( 0.0000,  0.0000,  0.0000)
  11 O      1.073450    1.911173    6.887921    ( 0.0000,  0.0000,  0.0000)
  12 O      9.813428    1.916404    9.612626    ( 0.0000,  0.0000,  0.0000)
  13 O      4.629084   11.460585    9.592125    ( 0.0000,  0.0000,  0.0000)
  14 Ti     2.789794   11.454422   10.357568    ( 0.0000,  0.0000,  0.0000)
  15 Ti     7.975067    1.899391   10.345004    ( 0.0000,  0.0000,  0.0000)
  16 Ti     0.528739    1.896169   11.265317    ( 0.0000,  0.0000,  0.0000)
  17 Ti     5.694189   -0.000996   11.205975    ( 0.0000,  0.0000,  0.0000)
  18 O      0.928522   -0.009761   11.091292    ( 0.0000,  0.0000,  0.0000)
  19 O      6.090611    1.906278   11.094468    ( 0.0000,  0.0000,  0.0000)
  20 O      9.038572    1.891998   11.991308    ( 0.0000,  0.0000,  0.0000)
  21 O      3.870992   11.431694   11.978948    ( 0.0000,  0.0000,  0.0000)
  22 O      7.560494    0.002196   10.456740    ( 0.0000,  0.0000,  0.0000)
  23 O      2.395125    1.896797   10.475248    ( 0.0000,  0.0000,  0.0000)
  24 O      0.915870    1.901691   13.211953    ( 0.0000,  0.0000,  0.0000)
  25 O      6.106672   11.440803   13.131924    ( 0.0000,  0.0000,  0.0000)
  26 Ti     4.256336   11.411059   13.979996    ( 0.0000,  0.0000,  0.0000)
  27 Ti     9.455137    1.862769   13.976441    ( 0.0000,  0.0000,  0.0000)
  28 Ti     1.906039    1.832484   14.987083    ( 0.0000,  0.0000,  0.0000)
  29 Ti     7.065966   -0.014294   14.781866    ( 0.0000,  0.0000,  0.0000)
  30 O      2.396433   11.396441   14.848887    ( 0.0000,  0.0000,  0.0000)
  31 O      7.515775    1.897567   14.850102    ( 0.0000,  0.0000,  0.0000)
  32 O      0.147778    1.749596   15.603666    ( 0.0000,  0.0000,  0.0000)
  33 O      5.365003   11.406682   15.514574    ( 0.0000,  0.0000,  0.0000)
  34 O      8.983535   -0.000567   13.957757    ( 0.0000,  0.0000,  0.0000)
  35 O      3.821898    1.840182   13.958533    ( 0.0000,  0.0000,  0.0000)
  36 O      8.476572    5.733518    6.000000    ( 0.0000,  0.0000,  0.0000)
  37 O      3.305699    3.822345    6.000000    ( 0.0000,  0.0000,  0.0000)
  38 Ti     1.412752    3.822345    6.752957    ( 0.0000,  0.0000,  0.0000)
  39 Ti     6.583625    5.733518    6.752957    ( 0.0000,  0.0000,  0.0000)
  40 Ti     9.522250    5.733518    7.640878    ( 0.0000,  0.0000,  0.0000)
  41 Ti     4.351376    3.822345    7.640878    ( 0.0000,  0.0000,  0.0000)
  42 O      9.861551    3.822345    7.505914    ( 0.0000,  0.0000,  0.0000)
  43 O      4.690678    5.733518    7.505914    ( 0.0000,  0.0000,  0.0000)
  44 O      7.629303    5.733518    8.393834    ( 0.0000,  0.0000,  0.0000)
  45 O      2.458430    3.822345    8.393834    ( 0.0000,  0.0000,  0.0000)
  46 O      6.244323    3.822345    6.887921    ( 0.0000,  0.0000,  0.0000)
  47 O      1.073450    5.733518    6.887921    ( 0.0000,  0.0000,  0.0000)
  48 O      9.812710    5.733916    9.591370    ( 0.0000,  0.0000,  0.0000)
  49 O      4.634536    3.814567    9.592576    ( 0.0000,  0.0000,  0.0000)
  50 Ti     2.758523    3.790537   10.314481    ( 0.0000,  0.0000,  0.0000)
  51 Ti     7.921720    5.754906   10.314304    ( 0.0000,  0.0000,  0.0000)
  52 Ti     0.552156    5.741889   11.175117    ( 0.0000,  0.0000,  0.0000)
  53 Ti     5.726184    3.806589   11.180519    ( 0.0000,  0.0000,  0.0000)
  54 O      0.932987    3.821565   11.106088    ( 0.0000,  0.0000,  0.0000)
  55 O      6.094635    5.718873   11.107302    ( 0.0000,  0.0000,  0.0000)
  56 O      9.034590    5.699603   11.924919    ( 0.0000,  0.0000,  0.0000)
  57 O      3.850162    3.824441   11.928136    ( 0.0000,  0.0000,  0.0000)
  58 O      7.560140    3.817971   10.459906    ( 0.0000,  0.0000,  0.0000)
  59 O      2.416330    5.735099   10.484689    ( 0.0000,  0.0000,  0.0000)
  60 O      0.879425    5.811553   13.196327    ( 0.0000,  0.0000,  0.0000)
  61 O      6.024522    3.775951   13.181223    ( 0.0000,  0.0000,  0.0000)
  62 Ti     4.110008    3.704094   13.802190    ( 0.0000,  0.0000,  0.0000)
  63 Ti     9.320646    5.802552   13.799809    ( 0.0000,  0.0000,  0.0000)
  64 Ti     1.966569    5.773896   14.774100    ( 0.0000,  0.0000,  0.0000)
  65 Ti     7.148383    3.771967   14.723205    ( 0.0000,  0.0000,  0.0000)
  66 O      2.318465    3.813593   14.638234    ( 0.0000,  0.0000,  0.0000)
  67 O      7.512737    5.712858   14.632862    ( 0.0000,  0.0000,  0.0000)
  68 O     -0.041773    5.742856   15.598375    ( 0.0000,  0.0000,  0.0000)
  69 O      5.106700    3.776937   15.580345    ( 0.0000,  0.0000,  0.0000)
  70 O      8.940890    3.785342   13.974076    ( 0.0000,  0.0000,  0.0000)
  71 O      3.729951    5.785335   13.936994    ( 0.0000,  0.0000,  0.0000)
  72 O      8.476572    9.555862    6.000000    ( 0.0000,  0.0000,  0.0000)
  73 O      3.305699    7.644690    6.000000    ( 0.0000,  0.0000,  0.0000)
  74 Ti     1.412752    7.644690    6.752957    ( 0.0000,  0.0000,  0.0000)
  75 Ti     6.583625    9.555862    6.752957    ( 0.0000,  0.0000,  0.0000)
  76 Ti     9.522250    9.555862    7.640878    ( 0.0000,  0.0000,  0.0000)
  77 Ti     4.351376    7.644690    7.640878    ( 0.0000,  0.0000,  0.0000)
  78 O      9.861551    7.644690    7.505914    ( 0.0000,  0.0000,  0.0000)
  79 O      4.690678    9.555862    7.505914    ( 0.0000,  0.0000,  0.0000)
  80 O      7.629303    9.555862    8.393834    ( 0.0000,  0.0000,  0.0000)
  81 O      2.458430    7.644690    8.393834    ( 0.0000,  0.0000,  0.0000)
  82 O      6.244323    7.644690    6.887921    ( 0.0000,  0.0000,  0.0000)
  83 O      1.073450    9.555862    6.887921    ( 0.0000,  0.0000,  0.0000)
  84 O      9.794342    9.557069    9.578242    ( 0.0000,  0.0000,  0.0000)
  85 O      4.631337    7.633630    9.683874    ( 0.0000,  0.0000,  0.0000)
  86 Ti     2.783907    7.643342   10.298094    ( 0.0000,  0.0000,  0.0000)
  87 Ti     7.931554    9.558606   10.356675    ( 0.0000,  0.0000,  0.0000)
  88 Ti     0.512085    9.546183   11.154610    ( 0.0000,  0.0000,  0.0000)
  89 Ti     5.737305    7.642303   11.260466    ( 0.0000,  0.0000,  0.0000)
  90 O      0.927557    7.637670   11.096992    ( 0.0000,  0.0000,  0.0000)
  91 O      6.089375    9.554902   11.100721    ( 0.0000,  0.0000,  0.0000)
  92 O      9.044080    9.558200   11.961471    ( 0.0000,  0.0000,  0.0000)
  93 O      7.588769    7.645379   10.462118    ( 0.0000,  0.0000,  0.0000)
  94 O      2.414549    9.532933   10.475601    ( 0.0000,  0.0000,  0.0000)
  95 O      0.934978    9.521313   13.075898    ( 0.0000,  0.0000,  0.0000)
  96 O      6.008168    7.633067   13.185133    ( 0.0000,  0.0000,  0.0000)
  97 Ti     4.324402    7.649750   14.116979    ( 0.0000,  0.0000,  0.0000)
  98 Ti     9.381818    9.570390   13.948721    ( 0.0000,  0.0000,  0.0000)
  99 Ti     1.858037    9.533514   14.655298    ( 0.0000,  0.0000,  0.0000)
 100 Ti     7.115087    7.639454   14.996019    ( 0.0000,  0.0000,  0.0000)
 101 O      2.356203    7.664284   14.997861    ( 0.0000,  0.0000,  0.0000)
 102 O      7.562377    9.540920   14.835798    ( 0.0000,  0.0000,  0.0000)
 103 O      0.191728    9.580201   15.470329    ( 0.0000,  0.0000,  0.0000)
 104 O      5.373156    7.630342   15.638753    ( 0.0000,  0.0000,  0.0000)
 105 O      9.003863    7.662221   13.955718    ( 0.0000,  0.0000,  0.0000)
 106 O      3.811463    9.488059   13.959569    ( 0.0000,  0.0000,  0.0000)
 107 V      8.979658    5.800880   16.863174    ( 0.0000,  0.0000,  0.0000)
 108 V      3.801026    3.670694   16.852811    ( 0.0000,  0.0000,  0.0000)
 109 O      7.922815    4.208572   16.704701    ( 0.0000,  0.0000,  0.0000)
 110 O      4.507394    3.640652   18.269253    ( 0.0000,  0.0000,  0.0000)
 111 O      8.030469    7.250086   16.714088    ( 0.0000,  0.0000,  0.0000)
 112 O      9.673381    5.753623   18.286542    ( 0.0000,  0.0000,  0.0000)
 113 O      2.772534    5.289349   16.723968    ( 0.0000,  0.0000,  0.0000)
 114 O      8.195022   11.478994   16.743465    ( 0.0000,  0.0000,  0.0000)
 115 O      2.839625    2.241996   16.680446    ( 0.0000,  0.0000,  0.0000)
 116 H      7.925691    3.578529   17.445708    ( 0.0000,  0.0000,  0.0000)
 117 H      2.832241    5.938966   17.445174    ( 0.0000,  0.0000,  0.0000)
 118 H      9.049174    0.486889   16.604638    ( 0.0000,  0.0000,  0.0000)
 119 H      8.452421   10.572601   17.003458    ( 0.0000,  0.0000,  0.0000)

Unit cell:
           periodic     x           y           z      points  spacing
  1. axis:    yes   10.341746    0.000000    0.000000    54     0.1915
  2. axis:    yes   -0.000000   11.467000    0.000000    60     0.1911
  3. axis:    no     0.000000    0.000000   23.497201   125     0.1880

  Lengths:  10.341746  11.467000  23.497201
  Angles:   90.000000  90.000000  90.000000

Effective grid spacing dv^(1/3) = 0.1902

                     log10-error:    total        iterations:
           time      wfs    density  energy       fermi  poisson
iter:   1  15:25:51  -2.30   +inf  -890.279826    4             
iter:   2  15:26:30  -3.23  -2.84  -890.296571    3             
iter:   3  15:27:09  -3.77  -2.92  -890.303779    3             
iter:   4  15:27:48  -3.68  -3.00  -890.302535    3             
iter:   5  15:28:27  -4.08  -3.22  -890.287934    3             
iter:   6  15:29:06  -4.63  -3.36  -890.285126    3             
iter:   7  15:29:45  -4.97  -3.56  -890.293967    3             
iter:   8  15:30:24  -5.34  -3.72  -890.291345    2             
iter:   9  15:31:02  -5.87  -3.83  -890.290845    2             
iter:  10  15:31:41  -5.91  -3.89  -890.290502    2             
iter:  11  15:32:20  -6.39  -4.01  -890.290217    2             
iter:  12  15:32:59  -6.13  -4.08  -890.291107    2             
iter:  13  15:33:38  -6.39  -4.27  -890.290766    1             
iter:  14  15:34:17  -6.71  -4.43  -890.290122    2             
iter:  15  15:34:56  -6.98  -4.58  -890.290003    2             
iter:  16  15:35:35  -7.13  -4.67  -890.290067    2             
iter:  17  15:36:13  -7.59  -4.79  -890.289983    2             

Converged after 17 iterations.

Dipole moment: (6.437912, 24.704917, -0.580869) |e|*Ang

Energy contributions relative to reference atoms: (reference = -1046941.945402)

Kinetic:       +592.000156
Potential:     -806.406699
External:        +0.000000
XC:            -686.501279
Entropy (-ST):   -0.240469
Local:          +10.738073
--------------------------
Free energy:   -890.410218
Extrapolated:  -890.289983

Fermi level: 0.85022

Showing all kpts
 Kpt  Band  Eigenvalues  Occupancy
  0   463     -1.32947    1.00000
  0   464      0.69173    0.82989
  0   465      1.10744    0.07095
  0   466      1.16867    0.03975

  1   463     -1.32901    1.00000
  1   464      0.69166    0.82999
  1   465      1.10862    0.07018
  1   466      1.16807    0.03998



Forces in eV/Ang:
  0 O    -1.97034    0.01245    1.33886
  1 O    -1.99044   -0.00737    1.31166
  2 Ti    3.70532    0.01330    1.60623
  3 Ti    3.68528   -0.07125    1.57289
  4 Ti   -1.72347   -0.06103   -1.44526
  5 Ti   -1.78723    0.06015   -1.61561
  6 O     0.91359    0.02291   -0.20907
  7 O     0.89906    0.05869   -0.21293
  8 O    -0.58176    0.00742   -0.48146
  9 O    -0.65250   -0.03641   -0.46883
 10 O    -0.29231   -0.00769   -0.95171
 11 O    -0.27419    0.08664   -0.92024
 12 O    -0.02492   -0.00530    0.08157
 13 O     0.05576    0.01935    0.17221
 14 Ti    0.17101   -0.00775    0.07729
 15 Ti    0.15580   -0.00688    0.10823
 16 Ti   -0.04345    0.00333    0.07085
 17 Ti   -0.12319    0.04109    0.10053
 18 O     0.00624   -0.03461   -0.03611
 19 O     0.09317    0.05535   -0.04868
 20 O     0.03768    0.03266   -0.10958
 21 O     0.00063    0.02738   -0.11713
 22 O     0.06937   -0.06337    0.03872
 23 O     0.03827    0.10707    0.11833
 24 O     0.02353   -0.04378    0.01545
 25 O     0.09741    0.02185    0.31724
 26 Ti    0.09227   -0.00843    0.16620
 27 Ti    0.04679    0.02286    0.04873
 28 Ti   -0.23257   -0.04699   -0.08158
 29 Ti   -0.39398   -0.04358    0.22058
 30 O     0.05381    0.04751    0.16558
 31 O     0.06194    0.24393    0.07346
 32 O     0.13667    0.08693   -0.29094
 33 O     0.21092   -0.00920   -0.21304
 34 O    -0.17011   -0.07491    0.02396
 35 O    -0.23731    0.36706    0.10644
 36 O    -2.03794    0.00164    1.36615
 37 O    -2.01760    0.01684    1.36257
 38 Ti    3.52165   -0.08403    1.38753
 39 Ti    3.59304   -0.02942    1.35512
 40 Ti   -1.55493   -0.00068   -1.72405
 41 Ti   -1.54905   -0.11817   -1.69852
 42 O     0.93330    0.05416   -0.21105
 43 O     0.88349    0.12352   -0.12732
 44 O    -0.66771    0.01067   -0.59208
 45 O    -0.68061    0.01834   -0.59868
 46 O    -0.31042    0.09215   -0.91455
 47 O    -0.27403    0.00766   -0.90529
 48 O     0.03305    0.01745    0.12346
 49 O     0.05488   -0.00939    0.12483
 50 Ti    0.06715    0.07215   -0.00571
 51 Ti    0.20595   -0.30414   -0.07399
 52 Ti    0.08412   -0.07810    0.07420
 53 Ti   -0.07211   -0.04368   -0.00533
 54 O     0.02698    0.02274   -0.03061
 55 O     0.12696    0.05957   -0.05138
 56 O    -0.01296    0.02975    0.08605
 57 O     0.04145   -0.07397    0.06691
 58 O     0.07954    0.01653    0.05357
 59 O     0.09574   -0.07147    0.26584
 60 O     0.06529   -0.03808    0.19594
 61 O     0.14156   -0.01380    0.26873
 62 Ti   -0.11101    0.17719   -0.01709
 63 Ti    0.00705   -0.13894   -0.03007
 64 Ti   -0.04396   -0.10279   -0.04788
 65 Ti   -0.15793    0.00985    0.13453
 66 O     0.09434    0.16784    0.12619
 67 O    -0.04850   -0.06654    0.08532
 68 O     0.20445    0.00503   -0.08837
 69 O     0.21566   -0.02695   -0.09095
 70 O    -0.14991    0.15788    0.15659
 71 O    -0.23672   -0.20461    0.06731
 72 O    -2.02655   -0.01281    1.31324
 73 O    -1.75517   -0.01171    1.39772
 74 Ti    3.46762    0.06480    1.47377
 75 Ti    3.76234    0.09953    1.56310
 76 Ti   -1.81923    0.06017   -1.83255
 77 Ti   -1.77160    0.06430   -1.26953
 78 O     0.92922   -0.06958   -0.21321
 79 O     0.86189   -0.21599   -0.12719
 80 O    -0.70197   -0.03075   -0.49044
 81 O    -0.42706   -0.03102   -0.91712
 82 O    -0.36151   -0.08433   -0.87849
 83 O    -0.25778   -0.09411   -0.89323
 84 O     0.06560   -0.02543    0.22893
 85 O    -0.14468    0.00140   -0.07827
 86 Ti   -0.19614   -0.02398   -0.07613
 87 Ti    0.22476    0.19892   -0.05502
 88 Ti    0.02289    0.05252    0.02529
 89 Ti    0.15418    0.01989    0.00518
 90 O     0.01902   -0.05628   -0.00506
 91 O     0.11717   -0.03773   -0.06662
 92 O    -0.05832    0.00419   -0.13493
 93 O     0.05543   -0.09847    0.08807
 94 O     0.10264    0.13743    0.24932
 95 O     0.00856    0.01395    0.39336
 96 O    -0.18327    0.01695    0.17566
 97 Ti   -0.13446   -0.10978    0.32757
 98 Ti    0.16560   -0.05609    0.16642
 99 Ti   -0.29717    0.00264    0.01978
[...]
  98 Ti     9.446993    9.598512   14.038563    ( 0.0000,  0.0000,  0.0000)
  99 Ti     1.900863    9.543867   14.861245    ( 0.0000,  0.0000,  0.0000)
 100 Ti     7.179619    7.679559   14.824516    ( 0.0000,  0.0000,  0.0000)
 101 O      2.399004    7.627104   14.890191    ( 0.0000,  0.0000,  0.0000)
 102 O      7.539842    9.603690   14.813217    ( 0.0000,  0.0000,  0.0000)
 103 O      0.199191    9.600480   15.558161    ( 0.0000,  0.0000,  0.0000)
 104 O      5.218083    7.491540   15.553326    ( 0.0000,  0.0000,  0.0000)
 105 O      8.989150    7.668242   14.111021    ( 0.0000,  0.0000,  0.0000)
 106 O      3.808852    9.552134   14.005303    ( 0.0000,  0.0000,  0.0000)
 107 V      5.725504    4.133539   17.246395    ( 0.0000,  0.0000,  0.0000)
 108 V      5.765113    7.412343   17.243940    ( 0.0000,  0.0000,  0.0000)
 109 O      2.638103    1.888250   16.927492    ( 0.0000,  0.0000,  0.0000)
 110 O      5.400560    5.774847   17.903563    ( 0.0000,  0.0000,  0.0000)
 111 O      2.820259    9.749316   16.852351    ( 0.0000,  0.0000,  0.0000)
 112 O      7.379365    3.810996   16.812845    ( 0.0000,  0.0000,  0.0000)
 113 O      5.105004    8.624448   18.091778    ( 0.0000,  0.0000,  0.0000)
 114 O      4.948447    2.960395   18.059976    ( 0.0000,  0.0000,  0.0000)
 115 O      7.413819    7.657856   16.789352    ( 0.0000,  0.0000,  0.0000)
 116 H      3.642762    9.314033   17.209775    ( 0.0000,  0.0000,  0.0000)
 117 H      2.937067   10.705537   17.024743    ( 0.0000,  0.0000,  0.0000)
 118 H      3.483990    2.266917   17.314024    ( 0.0000,  0.0000,  0.0000)
 119 H      1.904269    2.195375   17.494353    ( 0.0000,  0.0000,  0.0000)

Unit cell:
           periodic     x           y           z      points  spacing
  1. axis:    yes   10.341746    0.000000    0.000000    54     0.1915
  2. axis:    yes   -0.000000   11.467000    0.000000    60     0.1911
  3. axis:    no     0.000000    0.000000   23.497201   125     0.1880

  Lengths:  10.341746  11.467000  23.497201
  Angles:   90.000000  90.000000  90.000000

Effective grid spacing dv^(1/3) = 0.1902

                     log10-error:    total        iterations:
           time      wfs    density  energy       fermi  poisson
iter:   1  16:26:17  -3.10   +inf  -890.197609    3             
iter:   2  16:26:56  -4.04  -3.34  -890.198701    2             
iter:   3  16:27:34  -4.18  -3.36  -890.198478    3             
iter:   4  16:28:13  -4.72  -3.61  -890.198392    2             
iter:   5  16:28:52  -5.11  -3.65  -890.195753    2             
iter:   6  16:29:30  -5.22  -3.83  -890.197011    2             
iter:   7  16:30:09  -5.81  -3.99  -890.197357    1             
iter:   8  16:30:47  -5.67  -4.20  -890.197046    2             
iter:   9  16:31:26  -6.27  -4.31  -890.196784    2             
iter:  10  16:32:04  -6.76  -4.36  -890.196680    2             
iter:  11  16:32:43  -7.01  -4.51  -890.196718    2             
iter:  12  16:33:22  -6.14  -4.57  -890.196788    2             
iter:  13  16:34:00  -6.20  -4.56  -890.196655    2             
iter:  14  16:34:39  -7.44  -4.79  -890.196622    2             

Converged after 14 iterations.

Dipole moment: (-14.769219, -3.284247, -0.782207) |e|*Ang

Energy contributions relative to reference atoms: (reference = -1046941.945402)

Kinetic:       +600.769168
Potential:     -813.743320
External:        +0.000000
XC:            -687.887133
Entropy (-ST):   -0.125154
Local:          +10.727239
--------------------------
Free energy:   -890.259199
Extrapolated:  -890.196622

Fermi level: 0.68205

Showing all kpts
 Kpt  Band  Eigenvalues  Occupancy
  0   463     -1.40101    1.00000
  0   464      0.42829    0.92674
  0   465      1.01242    0.03545
  0   466      1.07931    0.01848

  1   463     -1.40120    1.00000
  1   464      0.42810    0.92686
  1   465      1.01151    0.03576
  1   466      1.08052    0.01826



Forces in eV/Ang:
  0 O    -1.98085    0.01278    1.31577
  1 O    -2.00457    0.01378    1.30118
  2 Ti    3.74022   -0.03864    1.66760
  3 Ti    3.85570   -0.09426    1.67259
  4 Ti   -1.83442   -0.06713   -1.44246
  5 Ti   -1.83484   -0.09322   -1.72007
  6 O     0.92187    0.02646   -0.21904
  7 O     0.85620    0.25599   -0.12168
  8 O    -0.47844    0.02193   -0.37787
  9 O    -0.61008    0.08760   -0.32427
 10 O    -0.30318    0.04243   -0.92505
 11 O    -0.24415    0.12814   -0.95696
 12 O    -0.05899    0.00077    0.08946
 13 O    -0.02614    0.01223    0.10314
 14 Ti    0.02992    0.01666    0.02207
 15 Ti    0.00286   -0.04732    0.03259
 16 Ti   -0.02573   -0.00359   -0.03862
 17 Ti   -0.08672    0.00826    0.02433
 18 O     0.04733    0.03867    0.02748
 19 O     0.00929    0.02516    0.01605
 20 O    -0.00804   -0.02611   -0.08216
 21 O    -0.03967    0.05023   -0.06170
 22 O     0.02851    0.01308    0.00217
 23 O    -0.03122   -0.03401   -0.09237
 24 O     0.02435    0.01646    0.11312
 25 O    -0.04882   -0.01516    0.09269
 26 Ti   -0.09434    0.03287    0.01509
 27 Ti    0.04695   -0.06867    0.00091
 28 Ti    0.07626    0.07068    0.05931
 29 Ti   -0.06630    0.03763    0.08546
 30 O     0.04775   -0.00675   -0.01520
 31 O     0.00785    0.07431    0.03361
 32 O     0.13036    0.03372   -0.06401
 33 O     0.02860   -0.01730   -0.08902
 34 O    -0.01093   -0.01172    0.12643
 35 O    -0.02410   -0.02859    0.04827
 36 O    -2.00862   -0.00660    1.31604
 37 O    -1.76186    0.00716    1.45720
 38 Ti    3.40781   -0.05381    1.49072
 39 Ti    3.84032    0.07420    1.63943
 40 Ti   -1.88165    0.03018   -1.70111
 41 Ti   -1.72923   -0.02686   -1.19636
 42 O     0.98181    0.01705   -0.22661
 43 O     0.83690   -0.18971   -0.12337
 44 O    -0.56854   -0.00674   -0.45036
 45 O    -0.47606   -0.00710   -0.59444
 46 O    -0.41151    0.01925   -0.87115
 47 O    -0.22464   -0.05452   -0.93400
 48 O    -0.07750   -0.00461    0.12169
 49 O    -0.06067   -0.01251   -0.09531
 50 Ti   -0.00316    0.00397   -0.04066
 51 Ti   -0.01964    0.04804    0.04288
 52 Ti   -0.03516   -0.01909    0.01398
 53 Ti    0.00035    0.03119    0.03843
 54 O     0.07083   -0.02910   -0.00879
 55 O     0.00502   -0.01308    0.03463
 56 O    -0.01540   -0.01787   -0.08393
 57 O     0.04733    0.03280   -0.00126
 58 O     0.00534    0.06237   -0.13393
 59 O     0.02391    0.01281    0.10010
 60 O     0.04772    0.02301    0.10193
 61 Ti   -0.06173   -0.01802    0.05316
 62 Ti   -0.03484   -0.00674    0.02591
 63 Ti    0.04276    0.03747    0.07988
 64 Ti    0.02887    0.03110   -0.02725
 65 O     0.00555   -0.09500    0.03211
 66 O     0.04684   -0.01875    0.01017
 67 O     0.02865    0.01356   -0.01220
 68 O     0.03294    0.00583   -0.03179
 69 O    -0.08405    0.05001   -0.03558
 70 O     0.03576    0.07169    0.04533
 71 O    -1.97077   -0.00527    1.31396
 72 O    -2.00097   -0.01953    1.35466
 73 Ti    3.58225    0.09514    1.50118
 74 Ti    3.79567    0.01988    1.69643
 75 Ti   -1.84788    0.03790   -1.45586
 76 Ti   -1.55626    0.11886   -1.45730
 77 O     0.96538   -0.03431   -0.22847
 78 O     0.88499   -0.05969   -0.20973
 79 O    -0.52294   -0.01482   -0.40039
 80 O    -0.58478   -0.06516   -0.43513
 81 O    -0.33987   -0.06148   -0.92753
 82 O    -0.25643   -0.07401   -0.96623
 83 O    -0.01108    0.00380    0.08416
 84 O    -0.01031   -0.01266    0.00759
 85 Ti    0.02177   -0.01244    0.05941
 86 Ti    0.03413   -0.01349    0.01150
 87 Ti   -0.00778    0.02464    0.01415
 88 Ti   -0.04753    0.00661    0.01602
 89 O     0.04673   -0.03136    0.00801
 90 O     0.07284   -0.00181   -0.01450
 91 O    -0.01059    0.02922   -0.06777
 92 O     0.02636   -0.00777    0.00193
 93 O     0.03235   -0.01726    0.01165
 94 O     0.00705   -0.00338   -0.01225
 95 O    -0.00070    0.00461    0.12930
 96 O     0.05445    0.00072    0.04368
 97 Ti   -0.04251   -0.07299   -0.01138
 98 Ti    0.03973    0.03342    0.01362
 99 Ti    0.08287    0.05975    0.11905
100 Ti    0.02663    0.00695    0.00505
101 O    -0.02204   -0.06083   -0.04734
102 O    -0.01134   -0.06725    0.02081
103 O     0.05091   -0.02309   -0.00589
104 O    -0.05491   -0.05089    0.04438
105 O    -0.07068   -0.02404   -0.03397
106 O    -0.00240   -0.00524    0.14188
107 V    -0.05200   -0.05167    0.01385
108 V    -0.01982    0.01003   -0.01111
109 O     0.02784   -0.01394    0.03406
110 O    -0.02627   -0.03033    0.11975
111 O    -0.00822    0.00725    0.07921
112 O    -0.06596   -0.00640   -0.06996
113 O    -0.08345    0.01052    0.00215
114 O    -0.02624   -0.07533    0.07327
115 O     0.00983   -0.00660   -0.00540
116 H    -0.01962   -0.01617    0.06782
117 H     0.04415    0.01511    0.04506
118 H     0.01697   -0.00285   -0.00253
119 H     0.02962    0.00112    0.05787

System changes: positions 

Initializing position-dependent things.

Density initialized from wave functions
                                                
                                                
                                                
                                                
                                                
                                                
                    OHH  O                      
                          V O                   
             O          O     O                 
                  Ti O   Ti     O               
                  O   O VO  OOTi    Ti          
           O H O H                O             
               Ti     Oi   O O                  
         O     O    OTi    Ti    OTiO           
             Tii   OTi    OOO   O               
             OO  O      TiTi   TiOi             
          O Ti     Ti     O  O O     O          
            O    O     OTi    TOO               
         Ti     TiO      O  O      O Ti         
              O O    O Oi    Ti     O           
         O     Ti    Ti    OTi   OTi            
             O O    O O                         
                    Ti     Oi     O             
             Oi     O    O      Ti              
           O     OTi    Ti     O                
          Ti          O      O                  
               O                                
                                                
                                                
                                                
                                                

Positions:
   0 O      8.476572    1.911173    6.000000    ( 0.0000,  0.0000,  0.0000)
   1 O      3.305699    0.000000    6.000000    ( 0.0000,  0.0000,  0.0000)
   2 Ti     1.412752    0.000000    6.752957    ( 0.0000,  0.0000,  0.0000)
   3 Ti     6.583625    1.911173    6.752957    ( 0.0000,  0.0000,  0.0000)
   4 Ti     9.522250    1.911173    7.640878    ( 0.0000,  0.0000,  0.0000)
   5 Ti     4.351376    0.000000    7.640878    ( 0.0000,  0.0000,  0.0000)
   6 O      9.861551    0.000000    7.505914    ( 0.0000,  0.0000,  0.0000)
   7 O      4.690678    1.911173    7.505914    ( 0.0000,  0.0000,  0.0000)
   8 O      7.629303    1.911173    8.393834    ( 0.0000,  0.0000,  0.0000)
   9 O      2.458430    0.000000    8.393834    ( 0.0000,  0.0000,  0.0000)
  10 O      6.244323    0.000000    6.887921    ( 0.0000,  0.0000,  0.0000)
  11 O      1.073450    1.911173    6.887921    ( 0.0000,  0.0000,  0.0000)
  12 O      9.839762    1.912828    9.612074    ( 0.0000,  0.0000,  0.0000)
  13 O      4.639321   11.471739    9.585610    ( 0.0000,  0.0000,  0.0000)
  14 Ti     2.798416   11.468466   10.377220    ( 0.0000,  0.0000,  0.0000)
  15 Ti     8.012249    1.907207   10.371385    ( 0.0000,  0.0000,  0.0000)
  16 Ti     0.534999    1.918391   11.263439    ( 0.0000,  0.0000,  0.0000)
  17 Ti     5.719752   -0.003111   11.155305    ( 0.0000,  0.0000,  0.0000)
  18 O      0.940468    0.004834   11.097768    ( 0.0000,  0.0000,  0.0000)
  19 O      6.128972    1.899870   11.071430    ( 0.0000,  0.0000,  0.0000)
  20 O      9.056453    1.923351   12.016259    ( 0.0000,  0.0000,  0.0000)
  21 O      3.899399   -0.024417   11.970649    ( 0.0000,  0.0000,  0.0000)
  22 O      7.621377   11.464609   10.494948    ( 0.0000,  0.0000,  0.0000)
  23 O      2.460380    1.928601   10.587312    ( 0.0000,  0.0000,  0.0000)
  24 O      0.916926    1.924417   13.198104    ( 0.0000,  0.0000,  0.0000)
  25 O      6.100537   11.475422   13.086190    ( 0.0000,  0.0000,  0.0000)
  26 Ti     4.198369   11.478506   13.971583    ( 0.0000,  0.0000,  0.0000)
  27 Ti     9.428213    1.889492   14.060873    ( 0.0000,  0.0000,  0.0000)
  28 Ti     1.885996    1.925346   14.834161    ( 0.0000,  0.0000,  0.0000)
  29 Ti     7.015307    0.002250   14.647168    ( 0.0000,  0.0000,  0.0000)
  30 O      2.377018    0.013314   14.814543    ( 0.0000,  0.0000,  0.0000)
  31 O      7.515781    1.885100   14.813620    ( 0.0000,  0.0000,  0.0000)
  32 O      0.192138    1.898336   15.582447    ( 0.0000,  0.0000,  0.0000)
  33 O      5.357188   11.490567   15.467076    ( 0.0000,  0.0000,  0.0000)
  34 O      9.010551    0.010348   14.080264    ( 0.0000,  0.0000,  0.0000)
  35 O      3.770082    1.950072   13.953274    ( 0.0000,  0.0000,  0.0000)
  36 O      8.476572    5.733518    6.000000    ( 0.0000,  0.0000,  0.0000)
  37 O      3.305699    3.822345    6.000000    ( 0.0000,  0.0000,  0.0000)
  38 Ti     1.412752    3.822345    6.752957    ( 0.0000,  0.0000,  0.0000)
  39 Ti     6.583625    5.733518    6.752957    ( 0.0000,  0.0000,  0.0000)
  40 Ti     9.522250    5.733518    7.640878    ( 0.0000,  0.0000,  0.0000)
  41 Ti     4.351376    3.822345    7.640878    ( 0.0000,  0.0000,  0.0000)
  42 O      9.861551    3.822345    7.505914    ( 0.0000,  0.0000,  0.0000)
  43 O      4.690678    5.733518    7.505914    ( 0.0000,  0.0000,  0.0000)
  44 O      7.629303    5.733518    8.393834    ( 0.0000,  0.0000,  0.0000)
  45 O      2.458430    3.822345    8.393834    ( 0.0000,  0.0000,  0.0000)
  46 O      6.244323    3.822345    6.887921    ( 0.0000,  0.0000,  0.0000)
  47 O      1.073450    5.733518    6.887921    ( 0.0000,  0.0000,  0.0000)
  48 O      9.825027    5.737519    9.593297    ( 0.0000,  0.0000,  0.0000)
  49 O      4.611984    3.829225    9.708809    ( 0.0000,  0.0000,  0.0000)
  50 Ti     2.768965    3.822607   10.315072    ( 0.0000,  0.0000,  0.0000)
  51 Ti     7.977202    5.733211   10.372640    ( 0.0000,  0.0000,  0.0000)
  52 Ti     0.531183    5.742947   11.184769    ( 0.0000,  0.0000,  0.0000)
  53 Ti     5.775798    3.806724   11.245759    ( 0.0000,  0.0000,  0.0000)
  54 O      0.928625    3.830822   11.113122    ( 0.0000,  0.0000,  0.0000)
  55 O      6.126791    5.743038   11.115140    ( 0.0000,  0.0000,  0.0000)
  56 O      9.049444    5.745576   11.993882    ( 0.0000,  0.0000,  0.0000)
  57 O      7.633446    3.822381   10.507029    ( 0.0000,  0.0000,  0.0000)
  58 O      2.453551    5.726393   10.563654    ( 0.0000,  0.0000,  0.0000)
  59 O      0.884452    5.776762   13.120258    ( 0.0000,  0.0000,  0.0000)
  60 O      5.975407    3.760639   13.179679    ( 0.0000,  0.0000,  0.0000)
  61 Ti     4.140179    3.850815   13.877572    ( 0.0000,  0.0000,  0.0000)
  62 Ti     9.382265    5.739884   14.010390    ( 0.0000,  0.0000,  0.0000)
  63 Ti     1.838851    5.751276   14.670091    ( 0.0000,  0.0000,  0.0000)
  64 Ti     7.150274    3.804133   14.845689    ( 0.0000,  0.0000,  0.0000)
  65 O      2.336186    3.873733   14.834237    ( 0.0000,  0.0000,  0.0000)
  66 O      7.492953    5.735496   14.670124    ( 0.0000,  0.0000,  0.0000)
  67 O      0.190947    5.736899   15.497151    ( 0.0000,  0.0000,  0.0000)
  68 O      5.211127    4.049059   15.552649    ( 0.0000,  0.0000,  0.0000)
  69 O      8.967694    3.812050   14.116776    ( 0.0000,  0.0000,  0.0000)
  70 O      3.722149    5.735151   13.836520    ( 0.0000,  0.0000,  0.0000)
  71 O      8.476572    9.555862    6.000000    ( 0.0000,  0.0000,  0.0000)
  72 O      3.305699    7.644690    6.000000    ( 0.0000,  0.0000,  0.0000)
  73 Ti     1.412752    7.644690    6.752957    ( 0.0000,  0.0000,  0.0000)
  74 Ti     6.583625    9.555862    6.752957    ( 0.0000,  0.0000,  0.0000)
  75 Ti     9.522250    9.555862    7.640878    ( 0.0000,  0.0000,  0.0000)
  76 Ti     4.351376    7.644690    7.640878    ( 0.0000,  0.0000,  0.0000)
  77 O      9.861551    7.644690    7.505914    ( 0.0000,  0.0000,  0.0000)
  78 O      4.690678    9.555862    7.505914    ( 0.0000,  0.0000,  0.0000)
  79 O      7.629303    9.555862    8.393834    ( 0.0000,  0.0000,  0.0000)
  80 O      2.458430    7.644690    8.393834    ( 0.0000,  0.0000,  0.0000)
  81 O      6.244323    7.644690    6.887921    ( 0.0000,  0.0000,  0.0000)
  82 O      1.073450    9.555862    6.887921    ( 0.0000,  0.0000,  0.0000)
  83 O      9.824136    9.556680    9.611660    ( 0.0000,  0.0000,  0.0000)
  84 O      4.650612    7.639546    9.611349    ( 0.0000,  0.0000,  0.0000)
  85 Ti     2.800105    7.657167   10.332752    ( 0.0000,  0.0000,  0.0000)
  86 Ti     8.008403    9.560546   10.369943    ( 0.0000,  0.0000,  0.0000)
  87 Ti     0.540019    9.554518   11.256527    ( 0.0000,  0.0000,  0.0000)
  88 Ti     5.743328    7.658563   11.233501    ( 0.0000,  0.0000,  0.0000)
  89 O      0.937030    7.646863   11.068086    ( 0.0000,  0.0000,  0.0000)
  90 O      6.120366    9.558805   11.073883    ( 0.0000,  0.0000,  0.0000)
  91 O      9.065685    9.549826   12.015417    ( 0.0000,  0.0000,  0.0000)
  92 O      3.864928    7.690685   11.964903    ( 0.0000,  0.0000,  0.0000)
  93 O      7.601666    7.648585   10.508318    ( 0.0000,  0.0000,  0.0000)
  94 O      2.423282    9.558944   10.504097    ( 0.0000,  0.0000,  0.0000)
  95 O      0.948661    9.529476   13.190020    ( 0.0000,  0.0000,  0.0000)
  96 O      6.039143    7.717393   13.213676    ( 0.0000,  0.0000,  0.0000)
  97 Ti     4.162518    7.669873   13.854988    ( 0.0000,  0.0000,  0.0000)
  98 Ti     9.449860    9.599402   14.043914    ( 0.0000,  0.0000,  0.0000)
  99 Ti     1.900063    9.545436   14.869923    ( 0.0000,  0.0000,  0.0000)
 100 Ti     7.179769    7.680787   14.830572    ( 0.0000,  0.0000,  0.0000)
 101 O      2.399095    7.625310   14.893360    ( 0.0000,  0.0000,  0.0000)
 102 O      7.534630    9.603757   14.816816    ( 0.0000,  0.0000,  0.0000)
 103 O      0.202660    9.601015   15.564964    ( 0.0000,  0.0000,  0.0000)
 104 O      5.213648    7.481563   15.559421    ( 0.0000,  0.0000,  0.0000)
 105 O      8.986379    7.669634   14.115009    ( 0.0000,  0.0000,  0.0000)
 106 O      3.809400    9.547248   14.014704    ( 0.0000,  0.0000,  0.0000)
 107 V      5.722258    4.131212   17.250488    ( 0.0000,  0.0000,  0.0000)
 108 V      5.762300    7.408703   17.246798    ( 0.0000,  0.0000,  0.0000)
 109 O      2.641236    1.885545   16.929072    ( 0.0000,  0.0000,  0.0000)
 110 O      5.401566    5.770967   17.909554    ( 0.0000,  0.0000,  0.0000)
 111 O      2.819134    9.749652   16.862670    ( 0.0000,  0.0000,  0.0000)
 112 O      7.375774    3.810373   16.815208    ( 0.0000,  0.0000,  0.0000)
 113 O      5.099052    8.622258   18.090957    ( 0.0000,  0.0000,  0.0000)
 114 O      4.948508    2.955502   18.064207    ( 0.0000,  0.0000,  0.0000)
 115 O      7.411632    7.658597   16.792510    ( 0.0000,  0.0000,  0.0000)
 116 H      3.643679    9.313038   17.216682    ( 0.0000,  0.0000,  0.0000)
 117 H      2.944073   10.706027   17.030329    ( 0.0000,  0.0000,  0.0000)
 118 H      3.487102    2.266629   17.314605    ( 0.0000,  0.0000,  0.0000)
 119 H      1.909123    2.194783   17.497330    ( 0.0000,  0.0000,  0.0000)

Unit cell:
           periodic     x           y           z      points  spacing
  1. axis:    yes   10.341746    0.000000    0.000000    54     0.1915
  2. axis:    yes   -0.000000   11.467000    0.000000    60     0.1911
  3. axis:    no     0.000000    0.000000   23.497201   125     0.1880

  Lengths:  10.341746  11.467000  23.497201
  Angles:   90.000000  90.000000  90.000000

Effective grid spacing dv^(1/3) = 0.1902

slurmstepd: error: *** JOB 2698745 ON s74n31 CANCELLED AT 2019-07-03T16:35:25 ***
