118
Lattice="10.341746277552646 0.0 0.0 -2.619435405085487e-16 11.467 0.0 0.0 0.0 23.497200848665354" Properties=species:S:1:pos:R:3:forces:R:3 energy=-858.6707290394569 pbc="T T F"
O       8.47657182       1.91117250       6.00000000       0.00000000       0.00000000       0.00000000 
O       3.30569868       0.00000000       6.00000000       0.00000000       0.00000000       0.00000000 
Ti       1.41275186       0.00000000       6.75295684       0.00000000       0.00000000       0.00000000 
Ti       6.58362500       1.91117250       6.75295684       0.00000000       0.00000000       0.00000000 
Ti       9.52224953       1.91117250       7.64087763       0.00000000       0.00000000       0.00000000 
Ti       4.35137640       0.00000000       7.64087763       0.00000000       0.00000000       0.00000000 
O       9.86155132       0.00000000       7.50591367       0.00000000       0.00000000       0.00000000 
O       4.69067818       1.91117250       7.50591367       0.00000000       0.00000000       0.00000000 
O       7.62930272       1.91117250       8.39383447       0.00000000       0.00000000       0.00000000 
O       2.45842958       0.00000000       8.39383447       0.00000000       0.00000000       0.00000000 
O       6.24432321       0.00000000       6.88792080       0.00000000       0.00000000       0.00000000 
O       1.07345007       1.91117250       6.88792080       0.00000000       0.00000000       0.00000000 
O       9.80602551       1.90853204       9.58232792       0.00991441       0.00228617       0.00432902 
O       4.63400352      -0.00021052       9.58244795       0.00657636      -0.00033621      -0.00304743 
Ti       2.74565712       0.02037961      10.38986744       0.00825975       0.00440976       0.01175963 
Ti       7.91797814       1.88213464      10.39138022       0.00745294       0.00380260       0.00662553 
Ti       0.48412275       1.93693293      11.12685265      -0.00721382      -0.00815986       0.00896214 
Ti       5.65231841      11.43888342      11.12808458      -0.00641129       0.01023159       0.00330902 
O       0.90855014      -0.00843129      11.09323160       0.00282717      -0.00195771       0.00673839 
O       6.08044011       1.91462379      11.09361008      -0.00085440       0.00389534       0.00090468 
O       9.02904445       1.88085846      11.94672824       0.02032848      -0.00286418      -0.00553005 
O       3.85866682       0.02262717      11.94658970       0.00967745       0.00438645      -0.00062777 
O       7.55008501      -0.01047669      10.44606271      -0.00761139      -0.00088545       0.00293804 
O       2.37792215       1.91749798      10.44648066      -0.00766328       0.00814388       0.00013430 
O       0.93590255       1.91800757      13.08631849       0.00699289       0.01277699       0.00688526 
O       6.10577991      -0.01814820      13.08659488      -0.00111748       0.00743706      -0.00222059 
Ti       4.19865998       0.05400582      14.01254888      -0.00987942       0.00355396      -0.01203793 
Ti       9.37187232       1.84811573      14.01049670       0.00673437      -0.00406755      -0.00929190 
Ti       1.82407940       1.92490787      14.62825629      -0.00627174       0.00392244       0.00839176 
Ti       6.99416434      11.44714031      14.62746644      -0.00682863      -0.01047154      -0.00471082 
O       2.38221510       0.03105381      14.83120776       0.00754268      -0.01325949       0.00614639 
O       7.55096656       1.86980009      14.82479922       0.00342925       0.01643660       0.00617030 
O       0.19415991       1.85791628      15.45296367      -0.00601123      -0.02160069       0.00600853 
O       5.36348198       0.04611381      15.45380616      -0.00159031       0.01643846      -0.00402796 
O       9.00177286      11.42670098      13.96720401       0.02387449      -0.00258623      -0.00249822 
O       3.82876677       1.94459819      13.96473376       0.01463199      -0.00695928       0.00081354 
O       8.47657182       5.73351750       6.00000000       0.00000000       0.00000000       0.00000000 
O       3.30569868       3.82234500       6.00000000       0.00000000       0.00000000       0.00000000 
Ti       1.41275186       3.82234500       6.75295684       0.00000000       0.00000000       0.00000000 
Ti       6.58362500       5.73351750       6.75295684       0.00000000       0.00000000       0.00000000 
Ti       9.52224953       5.73351750       7.64087763       0.00000000       0.00000000       0.00000000 
Ti       4.35137640       3.82234500       7.64087763       0.00000000       0.00000000       0.00000000 
O       9.86155132       3.82234500       7.50591367       0.00000000       0.00000000       0.00000000 
O       4.69067818       5.73351750       7.50591367       0.00000000       0.00000000       0.00000000 
O       7.62930272       5.73351750       8.39383447       0.00000000       0.00000000       0.00000000 
O       2.45842958       3.82234500       8.39383447       0.00000000       0.00000000       0.00000000 
O       6.24432321       3.82234500       6.88792080       0.00000000       0.00000000       0.00000000 
O       1.07345007       5.73351750       6.88792080       0.00000000       0.00000000       0.00000000 
O       9.82597047       5.73061757       9.59906436       0.00477404      -0.00229030       0.01757101 
O       4.63453381       3.82944668       9.61084749       0.00385700      -0.00314352       0.00960954 
Ti       2.82988162       3.82679184      10.35829336       0.00151541       0.00205038       0.00400955 
Ti       7.90428730       5.68016449      10.33068763      -0.01458748       0.00002945       0.00317726 
Ti       0.54174820       5.70999782      11.15152667       0.01528314       0.00510957       0.00899801 
Ti       5.66561446       3.81599878      11.28767138      -0.00177549       0.00547108      -0.01525056 
O       0.88738467       3.82460175      11.09462914       0.00529088      -0.00074391      -0.00389565 
O       6.08879578       5.72760090      11.10612197       0.00426031      -0.00630813       0.00314781 
O       9.01537474       5.75092021      11.93392760       0.00210569       0.00354398      -0.01131240 
O       3.85138872       3.81948375      11.96358142       0.01486859      -0.00548551      -0.00749336 
O       7.56033969       3.82358635      10.45773696      -0.00211184       0.00980329       0.00447170 
O       2.37098285       5.72752971      10.45263759      -0.00428597      -0.00146109       0.00431275 
O       0.86918796       5.66925303      13.23673612      -0.00977996      -0.03265025       0.01257361 
O       6.04347436       3.80682541      13.21818149       0.01602627      -0.00549748       0.00594179 
Ti       4.31975251       3.80057763      14.03861072       0.00026696       0.00307658       0.02116512 
Ti       9.24361923       5.58851672      13.80250635       0.01836949      -0.00686910       0.01627261 
Ti       1.96462251       5.63823135      14.71871470      -0.00166085      -0.01700862      -0.01338485 
Ti       7.07269460       3.77937658      15.04663194       0.02025898       0.00095523       0.01026388 
O       2.32177291       3.78583504      15.00188579       0.00467482      -0.00775623      -0.03636156 
O       7.51081196       5.71979320      14.61575860      -0.00877219      -0.00259388      -0.00369372 
O      -0.14296601       5.72853238      15.62511031      -0.00326002       0.01028436       0.01522325 
O       5.35043115       3.81482272      15.60396718       0.01135144       0.00303791      -0.00984388 
O       9.02393010       3.77462804      13.94186111      -0.00695048      -0.00578056       0.00978158 
O       3.68318618       5.65957762      13.96692920       0.00095075       0.00651575       0.00227484 
O       8.47657182       9.55586250       6.00000000       0.00000000       0.00000000       0.00000000 
O       3.30569868       7.64469000       6.00000000       0.00000000       0.00000000       0.00000000 
Ti       1.41275186       7.64469000       6.75295684       0.00000000       0.00000000       0.00000000 
Ti       6.58362500       9.55586250       6.75295684       0.00000000       0.00000000       0.00000000 
Ti       9.52224953       9.55586250       7.64087763       0.00000000       0.00000000       0.00000000 
Ti       4.35137640       7.64469000       7.64087763       0.00000000       0.00000000       0.00000000 
O       9.86155132       7.64469000       7.50591367       0.00000000       0.00000000       0.00000000 
O       4.69067818       9.55586250       7.50591367       0.00000000       0.00000000       0.00000000 
O       7.62930272       9.55586250       8.39383447       0.00000000       0.00000000       0.00000000 
O       2.45842958       7.64469000       8.39383447       0.00000000       0.00000000       0.00000000 
O       6.24432321       7.64469000       6.88792080       0.00000000       0.00000000       0.00000000 
O       1.07345007       9.55586250       6.88792080       0.00000000       0.00000000       0.00000000 
O       9.80497503       9.54517086       9.61077606       0.00778481       0.00307361       0.01580875 
O       4.65311580       7.64443572       9.59892202      -0.00040728       0.00385922       0.01595830 
Ti       2.73194088       7.69409517      10.32709245      -0.00992101      -0.00986091       0.00339066 
Ti       8.00569288       9.54864745      10.35681444      -0.00000636       0.00017988      -0.00399791 
Ti       0.49348993       9.56027140      11.29632755       0.01061053      -0.00268641      -0.01273493 
Ti       5.71666131       7.67007830      11.15014897       0.01889620      -0.00906030       0.01254330 
O       0.91582577       7.64782465      11.10704790       0.00787772       0.00309026       0.00581339 
O       6.05722689       9.55132391      11.09236203       0.00612354       0.00066615       0.00716570 
O       9.02506641       9.55708328      11.96514826       0.00653514       0.00006691      -0.00739330 
O       3.84172719       7.62628501      11.93166371       0.00028546      -0.00709327      -0.01300275 
O       7.54285033       7.64963526      10.45260059      -0.00152263      -0.00247368       0.00575880 
O       2.38861136       9.55153840      10.45697792       0.00439504      -0.00926226       0.00620683 
O       0.87602980       9.56641577      13.22438463       0.00717575       0.00608141      -0.01399041 
O       6.03586204       7.70427475      13.22819213      -0.00908026       0.00628522      -0.00600616 
Ti       4.06911348       7.78164272      13.79224485       0.01181194       0.00832309       0.01081797 
Ti       9.50027959       9.57046606      14.04523960      -0.00694004      -0.01341351       0.00698538 
Ti       1.91488634       9.58035450      15.06894304      -0.00006243       0.00027367       0.00435602 
Ti       7.13051617       7.74504933      14.71513566      -0.00203111       0.01177519      -0.02932091 
O       2.33260256       7.64948178      14.60759626       0.01112501      -0.01125736       0.01044999 
O       7.49253117       9.59016786      14.99887629       0.00427527      -0.01083755       0.01155700 
O       0.18887234       9.55623115      15.61281540       0.01285925       0.00067196      -0.00952544 
O       5.06093454       7.65538884      15.60544661      -0.00567872      -0.01261536       0.01280677 
O       8.85470221       7.71737397      13.96810951       0.02160210       0.00794412      -0.00471460 
O       3.84965723       9.59553752      13.94433668       0.00099500       0.00474449       0.00955108 
V       3.78532399       7.71639797      16.85847788      -0.00462486       0.00453642      -0.00088750 
V       8.87001618       5.65340092      16.83548024      -0.00601049      -0.01093303      -0.01556066 
O       7.76490243       7.20014931      16.72099282       0.00264175       0.01503473       0.02724087 
O       2.81910409       9.19104225      16.71009820      -0.00168030      -0.01084821      -0.00374041 
O       9.50958889       5.72757254      18.28779883       0.00648580      -0.00202772      -0.00219286 
O       7.97290794       4.13874309      16.69490434       0.00849604       0.00085911       0.01618165 
O       4.50305139       7.66804062      18.27824382       0.00568626       0.00146785      -0.01069896 
O       2.71744476       6.15783501      16.72873105      -0.00185128      -0.00635409       0.02331775 
H       2.70117849       5.52803951      17.48548191       0.01742619      -0.02367763      -0.03921541 
H       7.75036024       7.82436214      17.48206494      -0.00367571       0.01706783      -0.01646914 
