115
Lattice="10.341746277552646 0.0 0.0 -2.619435405085487e-16 11.467 0.0 0.0 0.0 23.497200848665354" Properties=species:S:1:pos:R:3:forces:R:3 energy=-845.2997279257138 pbc="T T F"
O       8.47657182       1.91117250       6.00000000       0.00000000       0.00000000       0.00000000 
O       3.30569868       0.00000000       6.00000000       0.00000000       0.00000000       0.00000000 
Ti       1.41275186       0.00000000       6.75295684       0.00000000       0.00000000       0.00000000 
Ti       6.58362500       1.91117250       6.75295684       0.00000000       0.00000000       0.00000000 
Ti       9.52224953       1.91117250       7.64087763       0.00000000       0.00000000       0.00000000 
Ti       4.35137640       0.00000000       7.64087763       0.00000000       0.00000000       0.00000000 
O       9.86155132       0.00000000       7.50591367       0.00000000       0.00000000       0.00000000 
O       4.69067818       1.91117250       7.50591367       0.00000000       0.00000000       0.00000000 
O       7.62930272       1.91117250       8.39383447       0.00000000       0.00000000       0.00000000 
O       2.45842958       0.00000000       8.39383447       0.00000000       0.00000000       0.00000000 
O       6.24432321       0.00000000       6.88792080       0.00000000       0.00000000       0.00000000 
O       1.07345007       1.91117250       6.88792080       0.00000000       0.00000000       0.00000000 
O       9.81928639       1.91081472       9.57913567      -0.01071107      -0.00082327       0.00190207 
O       4.65179706       0.00092098       9.61616868      -0.01497958       0.00133844       0.02097194 
Ti       2.79597997       0.00547587      10.31653556       0.00793291      -0.00908470      -0.01213896 
Ti       7.94469669       1.92694259      10.39039671      -0.01077624      -0.00330057       0.00863766 
Ti       0.50452903       1.89246152      11.12347702      -0.01698950       0.00135078       0.00068218 
Ti       5.73290771      11.45920071      11.23393334      -0.01509496       0.00203674       0.01353977 
O       0.91963367       0.00220087      11.07582718      -0.03210362      -0.00021786       0.01703148 
O       6.09443156       1.91335077      11.08303023      -0.02520629       0.00202313       0.01474120 
O       9.04608811       1.90892998      11.94255765      -0.01977171       0.00291849      -0.01282873 
O       3.84512807      11.45467226      11.96051419      -0.02050291      -0.00387624      -0.00114774 
O       7.55133984      11.45699602      10.46505055       0.01699249      -0.00722038      -0.01742028 
O       2.40192707       1.90435587      10.44803351       0.00759302      -0.00279497      -0.02463974 
O       0.94677143       1.92132939      13.07713313      -0.01439690      -0.00053410       0.01042354 
O       6.02182065       0.11584631      13.22206821       0.00066282       0.00099363      -0.01843796 
Ti       4.17903056       0.01331870      13.82680097       0.01030068       0.01516773      -0.01043255 
Ti       9.41910716       1.95430934      14.02180334      -0.00796282       0.00296075      -0.01117899 
Ti       1.86682159       1.90163376      14.60608579      -0.01045263      -0.00104642       0.00091839 
Ti       7.25622668      11.44173332      14.80599073      -0.03683018      -0.00259904       0.00719852 
O       2.35944462       0.04826748      14.78340082      -0.02461582      -0.00137311       0.00962396 
O       7.56783340       1.93120646      14.81422393      -0.02197412       0.00042474       0.00423347 
O       0.23281708       1.94231045      15.45185060      -0.00287318      -0.00027223      -0.01789103 
O       5.22886169      11.09595339      15.58736298       0.02007476       0.01311172      -0.01446136 
O       9.01090191       0.02222829      13.97316095       0.01879449       0.00523329      -0.00371734 
O       3.86831773       1.91331977      13.97058166      -0.01586205      -0.00579962       0.00021919 
O       8.47657182       5.73351750       6.00000000       0.00000000       0.00000000       0.00000000 
O       3.30569868       3.82234500       6.00000000       0.00000000       0.00000000       0.00000000 
Ti       1.41275186       3.82234500       6.75295684       0.00000000       0.00000000       0.00000000 
Ti       6.58362500       5.73351750       6.75295684       0.00000000       0.00000000       0.00000000 
Ti       9.52224953       5.73351750       7.64087763       0.00000000       0.00000000       0.00000000 
Ti       4.35137640       3.82234500       7.64087763       0.00000000       0.00000000       0.00000000 
O       9.86155132       3.82234500       7.50591367       0.00000000       0.00000000       0.00000000 
O       4.69067818       5.73351750       7.50591367       0.00000000       0.00000000       0.00000000 
O       7.62930272       5.73351750       8.39383447       0.00000000       0.00000000       0.00000000 
O       2.45842958       3.82234500       8.39383447       0.00000000       0.00000000       0.00000000 
O       6.24432321       3.82234500       6.88792080       0.00000000       0.00000000       0.00000000 
O       1.07345007       5.73351750       6.88792080       0.00000000       0.00000000       0.00000000 
O       9.81943026       5.73497404       9.57894371      -0.01070664       0.00146061       0.00196126 
O       4.65092912       3.82179824       9.57934883      -0.00670979       0.00037860       0.01059753 
Ti       2.75971768       3.82331203      10.38941531      -0.00824640       0.00112285       0.00559461 
Ti       7.94505711       5.71580017      10.39013488      -0.01067604       0.00492156       0.00838100 
Ti       0.50541579       5.75627898      11.12289241      -0.01805661      -0.00354540       0.00149920 
Ti       5.65576454       3.82312787      11.13259452      -0.03195168      -0.00069624      -0.00878441 
O       0.92811550       3.82329675      11.07488960      -0.03093117       0.00001426       0.01616912 
O       6.09461657       5.73050552      11.08226008      -0.02553505      -0.00207360       0.01441026 
O       9.04647522       5.73528984      11.94240982      -0.01938581      -0.00303335      -0.01272138 
O       3.87590703       3.82498272      11.95047676      -0.01280962      -0.00130525      -0.00153691 
O       7.57053436       3.82218358      10.44842506       0.01517958      -0.00013225      -0.02235170 
O       2.40209981       5.74311812      10.44826148       0.00816691       0.00242490      -0.02461948 
O       0.94831036       5.72610618      13.07646929      -0.01558083       0.00097511       0.01149062 
O       6.14319396       3.82176841      13.07513136      -0.00949360       0.00016324       0.00005805 
Ti       4.22123504       3.82411171      14.03379724       0.00562853      -0.00185862      -0.00736801 
Ti       9.42033986       5.68939372      14.02020443      -0.00893443      -0.00311378      -0.00871540 
Ti       1.86729734       5.74936127      14.60600269      -0.01015313      -0.00483110       0.00100559 
Ti       7.02829523       3.82132688      14.60523719      -0.00768985      -0.00006941      -0.00393340 
O       2.41420022       3.82509239      14.81479140      -0.03994058      -0.00157096       0.01116882 
O       7.56879369       5.71126320      14.81334064      -0.02269712       0.00379925       0.00752770 
O       0.23338187       5.70616642      15.45117102      -0.00299688      -0.00171058      -0.01690659 
O       5.40835464       3.82414612      15.45609225      -0.01799841      -0.00106903      -0.00396396 
O       9.03763990       3.82164259      13.94867411      -0.00471749       0.00173666      -0.00287401 
O       3.86900595       5.73712191      13.97090786      -0.01706486       0.00225227       0.00013690 
O       8.47657182       9.55586250       6.00000000       0.00000000       0.00000000       0.00000000 
O       3.30569868       7.64469000       6.00000000       0.00000000       0.00000000       0.00000000 
Ti       1.41275186       7.64469000       6.75295684       0.00000000       0.00000000       0.00000000 
Ti       6.58362500       9.55586250       6.75295684       0.00000000       0.00000000       0.00000000 
Ti       9.52224953       9.55586250       7.64087763       0.00000000       0.00000000       0.00000000 
Ti       4.35137640       7.64469000       7.64087763       0.00000000       0.00000000       0.00000000 
O       9.86155132       7.64469000       7.50591367       0.00000000       0.00000000       0.00000000 
O       4.69067818       9.55586250       7.50591367       0.00000000       0.00000000       0.00000000 
O       7.62930272       9.55586250       8.39383447       0.00000000       0.00000000       0.00000000 
O       2.45842958       7.64469000       8.39383447       0.00000000       0.00000000       0.00000000 
O       6.24432321       7.64469000       6.88792080       0.00000000       0.00000000       0.00000000 
O       1.07345007       9.55586250       6.88792080       0.00000000       0.00000000       0.00000000 
O       9.81583484       9.55688542       9.58759991      -0.01573831      -0.00064401       0.01206686 
O       4.65093394       7.64273180       9.61668008      -0.01439551      -0.00136569       0.01946137 
Ti       2.79997071       7.64165990      10.31532846       0.00421915       0.00870626      -0.01006220 
Ti       7.98922764       9.55632908      10.35044769       0.00631347      -0.00136063      -0.00361106 
Ti       0.56262638       9.55582099      11.19058588      -0.00921094       0.00138192       0.01400750 
Ti       5.73666229       7.65367938      11.23715970      -0.01999169      -0.00362213       0.00673550 
O       0.91827185       7.64474012      11.07609246      -0.03049156      -0.00033122       0.01655401 
O       6.08519380       9.55597216      11.12642818      -0.02658522      -0.00091566       0.00510593 
O       9.07070139       9.55602124      11.93429648      -0.00636599      -0.00046794      -0.00531912 
O       3.84565235       7.66526521      11.96149852      -0.01968919       0.00044362      -0.00222141 
O       7.55137354       7.65495547      10.46549733       0.01780984       0.00595466      -0.01819790 
O       2.40586669       9.55661534      10.44304692       0.00592698      -0.00071459      -0.02437126 
O       0.99004270       9.55765243      13.10874060       0.00535748      -0.00149179       0.01004012 
O       6.02289418       7.52217045      13.21917623       0.00231768      -0.00264318      -0.01459666 
Ti       4.18127462       7.63468571      13.82575868      -0.00120205      -0.01717501      -0.00648780 
Ti       9.44229423       9.55551895      13.89729252      -0.02217990       0.00061865      -0.01937234 
Ti       1.85678826       9.55825562      14.81879500      -0.02133628       0.00150123       0.00702610 
Ti       7.25906344       7.66627326      14.80716020      -0.04373564       0.00917826       0.00418740 
O       2.36047277       7.60202843      14.78292712      -0.02473509      -0.00222623       0.00928892 
O       7.52838821       9.55379328      14.34878603      -0.03242835       0.00578475       0.02286667 
O       0.16828147       9.55714185      15.44596621      -0.00847498      -0.00142136       0.00278373 
O       5.23488191       8.02857657      15.57988908       0.00836421      -0.01951981      -0.01454861 
O       9.01336180       7.62099548      13.97274962       0.01123215      -0.00142382      -0.00455019 
O       3.80920836       9.55956532      13.94265276       0.01894685      -0.00111611       0.01973741 
V       7.42996701       9.55093078      17.53674846       0.00970991       0.01170575       0.00122349 
V       4.67832559       9.55977311      16.31956219      -0.00163940      -0.00114070      -0.02716311 
O       7.74241265      11.01530666      16.56680017       0.00329260       0.00151261      -0.01095654 
O       5.60197091       9.55334251      17.82052069       0.00140726       0.00878480      -0.02885629 
O       3.03015742       9.55667056      16.57824791       0.00970858       0.00090437      -0.02756765 
O       7.74567205       8.08550526      16.56700291      -0.00435701       0.02665740      -0.00282393 
O       8.21211878       9.55424755      18.92344625      -0.01890770      -0.00062444      -0.00568759 
