117
Lattice="10.341746277552646 0.0 0.0 -2.619435405085487e-16 11.467 0.0 0.0 0.0 23.497200848665354" Properties=species:S:1:pos:R:3:forces:R:3 energy=-843.9378913634947 pbc="T T F"
O       8.47657182       1.91117250       6.00000000       0.00000000       0.00000000       0.00000000 
O       3.30569868       0.00000000       6.00000000       0.00000000       0.00000000       0.00000000 
Ti       1.41275186       0.00000000       6.75295684       0.00000000       0.00000000       0.00000000 
Ti       6.58362500       1.91117250       6.75295684       0.00000000       0.00000000       0.00000000 
Ti       9.52224953       1.91117250       7.64087763       0.00000000       0.00000000       0.00000000 
Ti       4.35137640       0.00000000       7.64087763       0.00000000       0.00000000       0.00000000 
O       9.86155132       0.00000000       7.50591367       0.00000000       0.00000000       0.00000000 
O       4.69067818       1.91117250       7.50591367       0.00000000       0.00000000       0.00000000 
O       7.62930272       1.91117250       8.39383447       0.00000000       0.00000000       0.00000000 
O       2.45842958       0.00000000       8.39383447       0.00000000       0.00000000       0.00000000 
O       6.24432321       0.00000000       6.88792080       0.00000000       0.00000000       0.00000000 
O       1.07345007       1.91117250       6.88792080       0.00000000       0.00000000       0.00000000 
O       9.81095100       1.90971754       9.58160333      -0.00219174      -0.00318701      -0.02584662 
O       4.64243557      -0.00300127       9.59883474      -0.00126585      -0.00161111       0.02073366 
Ti       2.74174765       0.00521698      10.30844846       0.01396900      -0.01040037      -0.01952751 
Ti       7.92324109       1.93981651      10.36289178       0.00689126      -0.01925036      -0.00391972 
Ti       0.48248154       1.90610304      11.11880351      -0.00169803       0.00212869       0.00708042 
Ti       5.72478964      11.44991384      11.12841356      -0.00058522       0.00251435      -0.01619013 
O       0.90651742      -0.00218922      11.09126396       0.00998135      -0.00800968      -0.00480785 
O       6.08334154       1.91864620      11.06915288       0.01569254       0.00749129       0.00248428 
O       9.04297279       1.90374517      11.95012092       0.00179161       0.00215469       0.01727188 
O       3.84826551      11.46440435      11.95205424       0.00412818       0.00508909      -0.00879043 
O       7.55392194      11.45398549      10.45209696       0.00360099      -0.00909819       0.00338627 
O       2.38317517       1.90779728      10.44713944      -0.00223506      -0.00190068       0.00441762 
O       0.94684241       1.94430186      13.07939677       0.01204556      -0.03361892      -0.00172828 
O       6.09366428       0.10114618      13.11806426      -0.00990542       0.00209149       0.01783136 
Ti       4.14133169       0.01699388      13.79924747       0.01193994      -0.02154797       0.00773177 
Ti       9.41632299       1.94912076      13.98864016       0.00473625      -0.01057598      -0.00497124 
Ti       1.85703153       1.92468388      14.60662368      -0.00971158       0.00511301       0.01997398 
Ti       7.15730647       0.01851354      14.61189983       0.00515919      -0.00631539      -0.00192234 
O       2.38114274       0.04994610      14.77944725      -0.00642907      -0.00366402      -0.00229391 
O       7.55409968       1.92567621      14.79595499       0.01053825       0.00307274       0.00929802 
O       0.22957283       1.91518064      15.44855630      -0.00253121       0.01563551       0.00272339 
O       5.34611571      11.16075080      15.46290121       0.00136214      -0.02259263       0.03131066 
O       8.99378469       0.00287940      13.97063304      -0.00701508       0.01096371      -0.00303494 
O       3.87319904       1.91462162      13.96876299      -0.00790200       0.00564766      -0.00203750 
O       8.47657182       5.73351750       6.00000000       0.00000000       0.00000000       0.00000000 
O       3.30569868       3.82234500       6.00000000       0.00000000       0.00000000       0.00000000 
Ti       1.41275186       3.82234500       6.75295684       0.00000000       0.00000000       0.00000000 
Ti       6.58362500       5.73351750       6.75295684       0.00000000       0.00000000       0.00000000 
Ti       9.52224953       5.73351750       7.64087763       0.00000000       0.00000000       0.00000000 
Ti       4.35137640       3.82234500       7.64087763       0.00000000       0.00000000       0.00000000 
O       9.86155132       3.82234500       7.50591367       0.00000000       0.00000000       0.00000000 
O       4.69067818       5.73351750       7.50591367       0.00000000       0.00000000       0.00000000 
O       7.62930272       5.73351750       8.39383447       0.00000000       0.00000000       0.00000000 
O       2.45842958       3.82234500       8.39383447       0.00000000       0.00000000       0.00000000 
O       6.24432321       3.82234500       6.88792080       0.00000000       0.00000000       0.00000000 
O       1.07345007       5.73351750       6.88792080       0.00000000       0.00000000       0.00000000 
O       9.81009455       5.74073384       9.58171146      -0.00183730      -0.00559035      -0.02650040 
O       4.62895578       3.82031504       9.58118641      -0.00329762       0.00106526      -0.02911863 
Ti       2.73741240       3.82861568      10.35554507       0.01997228      -0.00334103      -0.00602942 
Ti       7.92339811       5.70799057      10.35890826       0.00832868       0.01220239       0.00566764 
Ti       0.48045576       5.73819864      11.12156895      -0.00063636       0.00063605       0.00476642 
Ti       5.62940876       3.82193980      11.12565977      -0.00808215      -0.00114858       0.00276493 
O       0.90078288       3.82519138      11.07533431       0.01146095      -0.00303215       0.00210573 
O       6.08260156       5.72099669      11.06335717       0.01865543      -0.01223574       0.00103371 
O       9.04517088       5.73165758      11.95172410      -0.00133684      -0.00092448       0.01445869 
O       3.87182623       3.82464710      11.95249629       0.00516066       0.00247094       0.02114215 
O       7.57564171       3.82125053      10.44729473      -0.01017870      -0.00196428       0.00059306 
O       2.38590755       5.73861885      10.44734613      -0.00084390      -0.00004794       0.00527934 
O       0.95619010       5.72455017      13.08047060       0.00247234      -0.00566695      -0.00592779 
O       6.13008230       3.82155869      13.07205620       0.00088751       0.00165948      -0.01593777 
Ti       4.22191589       3.82399085      14.00292739       0.00392550      -0.00270684      -0.00654894 
Ti       9.41781776       5.68704014      13.98854246      -0.00324128      -0.01190523       0.00367132 
Ti       1.85732484       5.73456794      14.61142351      -0.01254015       0.00186023       0.00940160 
Ti       7.01566525       3.81727056      14.59688977      -0.01452283       0.01260848      -0.00120471 
O       2.40411533       3.82510309      14.81589091      -0.00416392      -0.00198088      -0.00627510 
O       7.56971512       5.70209481      14.81207516       0.01233104       0.01828119      -0.01375098 
O       0.22762796       5.71422799      15.45090169       0.00788566       0.00871933       0.00079759 
O       5.40445343       3.82642050      15.45212846       0.00671486       0.00024927       0.01621639 
O       9.04265887       3.81571752      13.95632620      -0.01293203      -0.01340798      -0.01083857 
O       3.86935445       5.73554493      13.96974458      -0.01528700       0.00150342      -0.00163404 
O       8.47657182       9.55586250       6.00000000       0.00000000       0.00000000       0.00000000 
O       3.30569868       7.64469000       6.00000000       0.00000000       0.00000000       0.00000000 
Ti       1.41275186       7.64469000       6.75295684       0.00000000       0.00000000       0.00000000 
Ti       6.58362500       9.55586250       6.75295684       0.00000000       0.00000000       0.00000000 
Ti       9.52224953       9.55586250       7.64087763       0.00000000       0.00000000       0.00000000 
Ti       4.35137640       7.64469000       7.64087763       0.00000000       0.00000000       0.00000000 
O       9.86155132       7.64469000       7.50591367       0.00000000       0.00000000       0.00000000 
O       4.69067818       9.55586250       7.50591367       0.00000000       0.00000000       0.00000000 
O       7.62930272       9.55586250       8.39383447       0.00000000       0.00000000       0.00000000 
O       2.45842958       7.64469000       8.39383447       0.00000000       0.00000000       0.00000000 
O       6.24432321       7.64469000       6.88792080       0.00000000       0.00000000       0.00000000 
O       1.07345007       9.55586250       6.88792080       0.00000000       0.00000000       0.00000000 
O       9.81695563       9.55612871       9.60782721      -0.00885549      -0.00177837      -0.00881526 
O       4.64408438       7.64399295       9.59877451      -0.01117321      -0.00369867       0.00234993 
Ti       2.73880477       7.64857808      10.31056735       0.01691987       0.00468961      -0.01383778 
Ti       7.99357338       9.55328252      10.32864347       0.00060281      -0.00269201      -0.01914189 
Ti       0.52910941       9.55654510      11.22543586       0.01428433      -0.00620059       0.00430089 
Ti       5.71615518       7.65563048      11.13001695       0.00041533      -0.00782099      -0.00832923 
O       0.90694573       7.64849398      11.08497593       0.01009612       0.00211076       0.00505643 
O       6.07543174       9.55086219      11.11318816       0.00927132      -0.00157321       0.00782277 
O       9.06517981       9.56141729      11.96977225      -0.00577316      -0.00698783      -0.00711830 
O       3.85088967       7.65736434      11.95272322      -0.01075570       0.01174400      -0.01390023 
O       7.55704583       7.65377559      10.45382342       0.00238086       0.00707068       0.00394706 
O       2.38844450       9.55778302      10.44823072      -0.00429563       0.00001237       0.01008792 
O       0.97791277       9.53470802      13.18649752       0.00891608       0.02177761       0.02586973 
O       6.09000790       7.49040836      13.11982536      -0.00872535      -0.01173200       0.00095284 
Ti       4.12484757       7.63057876      13.81102174      -0.00600444       0.00793846       0.00780871 
Ti       9.47718611       9.54553861      13.93847857       0.00283303       0.01327484       0.00770992 
Ti       1.89277611       9.57983454      14.90024364      -0.00295009       0.01288930       0.01090984 
Ti       7.15875336       7.64342977      14.59048132      -0.00225855       0.00170597       0.00953134 
O       2.37851675       7.60717502      14.78371334      -0.01313684       0.00309470       0.00791939 
O       7.53640950       9.53320514      14.59083901      -0.00278186      -0.01201511       0.00316872 
O       0.19084681       9.64558030      15.51765897       0.01133000      -0.01739840       0.00598155 
O       5.31983476       7.95541037      15.44912905       0.00038708       0.01853498       0.01337609 
O       9.01392118       7.63233611      13.96499136       0.00724251      -0.00111204      -0.01344663 
O       3.83879465       9.56531303      13.93450943      -0.00820585       0.00284866      -0.00114661 
V       4.84701263       9.55742279      16.23736779       0.00157305      -0.00526210       0.00274282 
O       3.18319468       9.56314246      16.56497439       0.01132629      -0.01546686      -0.00985784 
O       7.74238452       7.69475889      16.75639162      -0.02964083       0.00698528      -0.03504637 
O       5.79452818       9.53073367      17.59793898       0.00313844       0.00478787      -0.00789718 
O       7.78886226      11.29103329      16.74893459      -0.02420478       0.00427524      -0.00491666 
H       7.05150851       8.22804287      17.26567643      -0.00478763      -0.01506634      -0.01661734 
H       7.13282229      10.69108917      17.22717430       0.01559137      -0.01446867      -0.00129207 
H       8.66853429      10.84396800      16.82537159       0.00062202      -0.00866025       0.00620308 
H       7.73902476       6.78843433      17.14157939      -0.00211208      -0.00458294       0.01410094 
