78
Lattice="10.341746277552646 0.0 0.0 -2.619435405085487e-16 7.64469 0.0 0.0 0.0 23.497200848665354" Properties=species:S:1:pos:R:3:forces:R:3 energy=-565.5210988863805 pbc="T T F"
O       8.47657182       1.91117250       6.00000000       0.00000000       0.00000000       0.00000000 
O       3.30569868       0.00000000       6.00000000       0.00000000       0.00000000       0.00000000 
Ti       1.41275186       0.00000000       6.75295684       0.00000000       0.00000000       0.00000000 
Ti       6.58362500       1.91117250       6.75295684       0.00000000       0.00000000       0.00000000 
Ti       9.52224953       1.91117250       7.64087763       0.00000000       0.00000000       0.00000000 
Ti       4.35137640       0.00000000       7.64087763       0.00000000       0.00000000       0.00000000 
O       9.86155132       0.00000000       7.50591367       0.00000000       0.00000000       0.00000000 
O       4.69067818       1.91117250       7.50591367       0.00000000       0.00000000       0.00000000 
O       7.62930272       1.91117250       8.39383447       0.00000000       0.00000000       0.00000000 
O       2.45842958       0.00000000       8.39383447       0.00000000       0.00000000       0.00000000 
O       6.24432321       0.00000000       6.88792080       0.00000000       0.00000000       0.00000000 
O       1.07345007       1.91117250       6.88792080       0.00000000       0.00000000       0.00000000 
O       9.81573987       1.92979073       9.62323939      -0.01280909      -0.00490159      -0.00419246 
O       4.63235441       7.64371798       9.59359297      -0.00078572      -0.00225547      -0.00461897 
Ti       2.70766279       0.03868501      10.31891751      -0.00035660      -0.01583576       0.00662380 
Ti       7.99967128       1.89905981      10.34482681       0.00574593       0.00625502       0.01220925 
Ti       0.47526848       1.91131889      11.27805402       0.00557036      -0.00663439       0.00867579 
Ti       5.69426640       7.62653784      11.09733875       0.00907142       0.00250306       0.02362070 
O       0.89481891       7.64551837      11.10804870       0.00930605      -0.00592799       0.00913597 
O       6.07752221       1.90194009      11.08513105       0.00170868       0.00619322       0.00524307 
O       9.03109794       1.91479399      11.99966514      -0.01088125       0.00167676      -0.00080722 
O       3.85469490       7.63657966      11.95545196       0.00288783      -0.00319907      -0.01362827 
O       7.56803066       7.63931390      10.45423935       0.01097453      -0.00226842       0.00281900 
O       2.37212464       1.90763742      10.45680610       0.00138227       0.00977717      -0.00445169 
O       0.89328198       1.92149088      13.23763691       0.00487088      -0.01898214       0.02054369 
O       6.09500482       7.63107220      13.11599496      -0.00003461      -0.00250325      -0.00618671 
Ti       4.12380932       0.08039080      13.82358510       0.01868657       0.01145976       0.01251961 
Ti       9.50779111       1.90474367      14.08827280       0.00480048       0.01282813      -0.01198256 
Ti       1.92723178       1.87261762      14.96467211       0.00441639       0.01311370      -0.01287848 
Ti       7.10053252      -0.02177477      14.57589244      -0.00281636       0.00352240       0.00457785 
O       2.39117352       7.62018981      14.80207413       0.01295613       0.00854163       0.01061696 
O       7.49563278       1.89216766      14.83127595       0.00653192       0.01916022      -0.01364232 
O       0.22831737       1.88570234      15.62288058       0.00123516       0.02372427      -0.02219015 
O       5.40287748       0.00172736      15.60096660       0.00562065      -0.01513873       0.01026553 
O       9.01355850      -0.01403933      14.13873344      -0.00119781       0.01606639      -0.04219571 
O       3.88290980       1.87564993      13.94155068      -0.00030550      -0.00395923      -0.00610517 
O       8.47657182       5.73351750       6.00000000       0.00000000       0.00000000       0.00000000 
O       3.30569868       3.82234500       6.00000000       0.00000000       0.00000000       0.00000000 
Ti       1.41275186       3.82234500       6.75295684       0.00000000       0.00000000       0.00000000 
Ti       6.58362500       5.73351750       6.75295684       0.00000000       0.00000000       0.00000000 
Ti       9.52224953       5.73351750       7.64087763       0.00000000       0.00000000       0.00000000 
Ti       4.35137640       3.82234500       7.64087763       0.00000000       0.00000000       0.00000000 
O       9.86155132       3.82234500       7.50591367       0.00000000       0.00000000       0.00000000 
O       4.69067818       5.73351750       7.50591367       0.00000000       0.00000000       0.00000000 
O       7.62930272       5.73351750       8.39383447       0.00000000       0.00000000       0.00000000 
O       2.45842958       3.82234500       8.39383447       0.00000000       0.00000000       0.00000000 
O       6.24432321       3.82234500       6.88792080       0.00000000       0.00000000       0.00000000 
O       1.07345007       5.73351750       6.88792080       0.00000000       0.00000000       0.00000000 
O       9.82029537       5.71383567       9.61535432      -0.00102836       0.00291861       0.01078074 
O       4.64382193       3.82171405       9.58402505      -0.00013067       0.00080423      -0.00771459 
Ti       2.70084179       3.85004122      10.29760798      -0.01023938       0.01867350       0.00776910 
Ti       7.96602326       5.73164905      10.36369298      -0.00849125      -0.00841364       0.00914305 
Ti       0.47097814       5.72590456      11.21453367      -0.02032510      -0.00276367       0.02362260 
Ti       5.72329733       3.78494075      11.07467133       0.00873536      -0.00704219      -0.00569504 
O       0.90127960       3.81897352      11.10998504       0.02137052       0.00314395       0.00184249 
O       6.09084081       5.72444039      11.08327694       0.00676700      -0.01003461       0.00479555 
O       9.03527384       5.70532943      11.99828621      -0.01302352      -0.01439365      -0.01699123 
O       3.85647355       3.81204901      11.91605879      -0.00553393      -0.00541626      -0.00405831 
O       7.56753294       3.80963827      10.44793053       0.00315210      -0.00579225       0.00176317 
O       2.36601768       5.72643421      10.45499325       0.01514183      -0.01604302      -0.00001152 
O       0.90578601       5.72720824      13.21968594      -0.01539195      -0.00103221      -0.01078748 
O       6.09899504       3.80816052      13.12004019       0.00660723      -0.00424173      -0.01395055 
Ti       4.11020167       3.90579136      13.73459816      -0.00745543      -0.01755023      -0.00866989 
Ti       9.44811978       5.69864338      14.09355916       0.02241351      -0.00751066       0.03207147 
Ti       1.87696319       5.70311498      14.79897050      -0.00375002       0.00604630       0.00889242 
Ti       7.03739606       3.77394572      14.62222494      -0.00014146      -0.00215551      -0.01073835 
O       2.37529835       3.82021055      14.58999864       0.00872120       0.00843325      -0.00052113 
O       7.50968930       5.70992863      14.81968316      -0.00883565      -0.01979762      -0.00265982 
O       0.22411661       5.68630119      15.58521519      -0.00313821       0.02210215       0.03752737 
O       5.28744540       3.74141148      15.60181587       0.00223419      -0.01433712       0.00294604 
O       8.98519732       3.79486275      14.14253763       0.00001792      -0.01215169       0.00412900 
O       3.88614695       5.71756948      13.95446846      -0.00711054      -0.01138513       0.00684797 
V       3.94360754       3.63266463      16.84528254       0.00526370      -0.01017308       0.01050809 
O       3.00459115       2.18676675      16.57208770      -0.00251308      -0.01026581      -0.01759923 
O       2.95581086       5.23510385      16.74276515       0.00347024       0.00981443      -0.01222172 
O       4.58711107       3.50885242      18.29428098       0.00741763      -0.01647886      -0.00008020 
H       2.95823850       5.84671996      17.51371664       0.00069026       0.00126711       0.00699077 
H       5.14315729       0.70234061      16.24361196      -0.00887086       0.00130947       0.01272042 
