
  ___ ___ ___ _ _ _  
 |   |   |_  | | | | 
 | | | | | . | | | | 
 |__ |  _|___|_____|  1.5.1
 |___|_|             

User:   siva@s74n44.grendel.cscaa.dk
Date:   Thu Nov 21 13:05:29 2019
Arch:   x86_64
Pid:    19721
Python: 3.6.3
gpaw:   /home/siva/gpaw-1.5.1/gpaw
_gpaw:  /home/siva/gpaw-1.5.1/build/bin.linux-x86_64-3.6/gpaw-python
ase:    /home/siva/env1.5/lib/python3.6/site-packages/ase (version 3.17.0)
numpy:  /home/siva/env1.5/lib/python3.6/site-packages/numpy (version 1.16.0)
scipy:  /home/siva/env1.5/lib/python3.6/site-packages/scipy (version 1.2.0)
units:  Angstrom and eV
cores:  20

Input parameters:
  basis: dzp
  kpts: [3 3 1]
  mode: {ecut: 500.0,
         gammacentered: False,
         name: pw}
  symmetry: {point_group: False}
  xc: PBE

System changes: positions, numbers, cell, pbc, initial_charges, initial_magmoms 

Initialize ...

O-setup:
  name: Oxygen
  id: 32ecd46bf208036f09c70b0ec9a88b78
  Z: 8
  valence: 6
  core: 2
  charge: 0.0
  file: /home/wido/sw/gpaw/basis/gpaw-setups-0.9.20000/O.PBE.gz
  cutoffs: 0.67(comp), 1.17(filt), 0.83(core), lmax=2
  valence states:
                energy  radius
    2s(2.00)   -23.961   0.688
    2p(4.00)    -9.029   0.598
    *s           3.251   0.688
    *p          18.182   0.598
    *d           0.000   0.619

  LCAO basis set for O:
    Name: dzp
    File: /home/wido/sw/gpaw/basis/gpaw-setups-0.9.20000/O.dzp.basis.gz
    Number of radial functions: 5
    Number of spherical harmonics: 13
      l=0, rc=4.3438 Bohr: 2s-sz confined orbital
      l=1, rc=5.3906 Bohr: 2p-sz confined orbital
      l=0, rc=2.2969 Bohr: 2s-dz split-valence wave
      l=1, rc=2.8906 Bohr: 2p-dz split-valence wave
      l=2, rc=5.3906 Bohr: d-type Gaussian polarization

Reference energy: -4081.704602

Spin-polarized calculation.
Magnetic moment: 6.000000

Occupation numbers:
  Fermi-Dirac: width=0.1000 eV

Convergence criteria:
  Maximum total energy change: 0.0005 eV / electron
  Maximum integral of absolute density change: 0.0001 electrons
  Maximum integral of absolute eigenstate change: 4e-08 eV^2
  Maximum number of iterations: 333

Symmetries present (total): 1

  ( 1  0  0)
  ( 0  1  0)
  ( 0  0  1)

9 k-points: 3 x 3 x 1 Monkhorst-Pack grid
5 k-points in the irreducible part of the Brillouin zone
       k-points in crystal coordinates                weights
   0:     0.00000000    0.00000000    0.00000000          1/9
   1:     0.00000000    0.33333333    0.00000000          2/9
   2:     0.33333333   -0.33333333    0.00000000          2/9
   3:     0.33333333    0.00000000    0.00000000          2/9
   4:     0.33333333    0.33333333    0.00000000          2/9

Wave functions: Plane wave expansion
  Cutoff energy: 500.000 eV
  Number of coefficients (min, max): 113213, 113329
  Pulay-stress correction: 0.000000 eV/Ang^3 (de/decut=0.000000)
  Using FFTW library
  ScaLapack parameters: grid=1x1, blocksize=None
  Wavefunction extrapolation:
    Improved wavefunction reuse through dual PAW basis 

Eigensolver
   Davidson(niter=2, smin=None, normalize=True) 

Densities:
  Coarse grid: 64*64*135 grid
  Fine grid: 128*128*270 grid
  Total Charge: 0.000000 

Density mixing:
  Method: sum
  Backend: pulay
  Linear mixing parameter: 0.05
  Mixing with 5 old densities
  Damping of long wave oscillations: 50 

Hamiltonian:
  XC and Coulomb potentials evaluated on a 128*128*270 grid
  Using the PBE Exchange-Correlation functional
 

XC parameters: PBE with 2 nearest neighbor stencil

Memory estimate:
  Process memory now: 323.51 MiB
  Calculator: 254.03 MiB
    Density: 133.81 MiB
      Arrays: 73.88 MiB
      Localized functions: 38.69 MiB
      Mixer: 21.25 MiB
    Hamiltonian: 55.66 MiB
      Arrays: 54.88 MiB
      XC: 0.00 MiB
      Poisson: 0.00 MiB
      vbar: 0.79 MiB
    Wavefunctions: 64.55 MiB
      Arrays psit_nG: 13.83 MiB
      Eigensolver: 22.49 MiB
      Projections: 0.00 MiB
      Projectors: 6.05 MiB
      PW-descriptor: 22.17 MiB

Total number of cores used: 20
Parallelization over k-points and spin: 10
Domain decomposition: 1 x 1 x 2

Number of atoms: 2
Number of atomic orbitals: 26
Number of bands in calculation: 8
Bands to converge: occupied states only
Number of valence electrons: 12

... initialized

Initializing position-dependent things.

Density initialized from atomic densities
Creating initial wave functions:
  8 bands from LCAO basis set

                
                
                
       O        
                
       O        
                
                
                

Positions:
   0 O      3.588000    6.214500   13.108982    ( 0.0000,  0.0000,  3.0000)
   1 O      3.588000    6.214500   11.891023    ( 0.0000,  0.0000,  3.0000)

Unit cell:
           periodic     x           y           z      points  spacing
  1. axis:    yes   14.352000    0.000000    0.000000    64     0.1942
  2. axis:    yes   -7.176000   12.429000    0.000000    64     0.1942
  3. axis:    no     0.000000    0.000000   25.000000   135     0.1852

  Lengths:  14.352000  14.351830  25.000000
  Angles:   90.000000  90.000000 120.000392

Effective grid spacing dv^(1/3) = 0.2005

                     log10-error:    total        iterations:
           time      wfs    density  energy       fermi  poisson  magmom
iter:   1  13:05:37  +0.64   +inf    -7.029229    8               +2.0000
iter:   2  13:05:42  -1.04  -1.11    -9.614655    5               +2.0000
iter:   3  13:05:47  -0.95  -1.13    -9.621333    17              +2.0000
iter:   4  13:05:52  -1.81  -1.75    -9.691649    4               +2.0000
iter:   5  13:05:57  -1.59  -1.69    -9.716311    24              +2.0000
iter:   6  13:06:02  -2.39  -1.76    -9.705364    6               +2.0000
iter:   7  13:06:07  -2.04  -2.35    -9.730953    7               +2.0000
iter:   8  13:06:12  -2.56  -1.83    -9.704448    6               +2.0000
iter:   9  13:06:17  -2.97  -2.57    -9.704293    3               +2.0000
iter:  10  13:06:22  -4.04  -2.97    -9.704357    3               +2.0000
iter:  11  13:06:27  -4.62  -2.98    -9.704231    2               +2.0000
iter:  12  13:06:32  -4.78  -3.50    -9.704234    2               +2.0000
iter:  13  13:06:37  -5.05  -3.67    -9.704261    2               +2.0000
iter:  14  13:06:42  -5.96  -3.29    -9.704241    2               +2.0000
iter:  15  13:06:48  -5.76  -3.48    -9.704230    2               +2.0000
iter:  16  13:06:53  -6.00  -3.79    -9.704241    2               +2.0000
iter:  17  13:06:58  -6.03  -3.47    -9.704231    2               +2.0000
iter:  18  13:07:03  -6.07  -3.77    -9.704231    2               +2.0000
iter:  19  13:07:08  -6.78  -3.91    -9.704232    2               +2.0000
iter:  20  13:07:13  -8.10  -3.98    -9.704232    1               +2.0000
iter:  21  13:07:18  -6.51  -4.04    -9.704233    2               +2.0000
iter:  22  13:07:23  -7.09  -4.15    -9.704232    2               +2.0000
iter:  23  13:07:28  -7.88  -4.27    -9.704232    1               +2.0000

Converged after 23 iterations.

Dipole moment: (-0.000000, 0.000000, -0.000000) |e|*Ang

Total magnetic moment: (0.000000, 0.000000, 2.000041)
Local magnetic moments:
   0 O  ( 0.000000,  0.000000,  0.712555)
   1 O  ( 0.000000,  0.000000,  0.712555)

Energy contributions relative to reference atoms: (reference = -4081.704602)

Kinetic:         +8.820724
Potential:       -9.626650
External:        +0.000000
XC:              -9.336087
Entropy (-ST):   -0.000050
Local:           +0.437806
--------------------------
Free energy:     -9.704257
Extrapolated:    -9.704232

Spin contamination: 0.037614 electrons
Fermi level: -5.69493

Showing only first 2 kpts
                      Up                     Down
 Kpt  Band  Eigenvalues  Occupancy  Eigenvalues  Occupancy
  0     4    -13.40387    0.11111    -11.54782    0.11111
  0     5     -6.87490    0.11111     -4.55885    0.00000
  0     6     -6.82496    0.11111     -4.52318    0.00000
  0     7      0.12263    0.00000     -0.18206    0.00000

  1     4    -13.40291    0.22222    -11.54693    0.22222
  1     5     -6.87508    0.22222     -4.55904    0.00000
  1     6     -6.82509    0.22222     -4.52334    0.00000
  1     7      0.21846    0.00000     -0.09061    0.00000



Forces in eV/Ang:
  0 O     0.00000   -0.00000   -0.01894
  1 O     0.00000   -0.00000    0.01896

Writing ir.eq.pckl, dipole moment = (-0.000000 0.000000 -0.000000)
System changes: positions 

Initializing position-dependent things.

Density initialized from wave functions
                
                
                
       O        
                
       O        
                
                
                

Positions:
   0 O      3.578000    6.214500   13.108982    ( 0.0000,  0.0000,  3.0000)
   1 O      3.588000    6.214500   11.891023    ( 0.0000,  0.0000,  3.0000)

Unit cell:
           periodic     x           y           z      points  spacing
  1. axis:    yes   14.352000    0.000000    0.000000    64     0.1942
  2. axis:    yes   -7.176000   12.429000    0.000000    64     0.1942
  3. axis:    no     0.000000    0.000000   25.000000   135     0.1852

  Lengths:  14.352000  14.351830  25.000000
  Angles:   90.000000  90.000000 120.000392

Effective grid spacing dv^(1/3) = 0.2005

                     log10-error:    total        iterations:
           time      wfs    density  energy       fermi  poisson  magmom
iter:   1  13:07:34  -2.70   +inf    -9.703857    2               +2.0000
iter:   2  13:07:39  -3.79  -3.20    -9.703997    1               +2.0000
iter:   3  13:07:44  -4.56  -3.16    -9.704017    1               +2.0000
iter:   4  13:07:49  -5.19  -3.08    -9.704002    1               +2.0000
iter:   5  13:07:54  -5.96  -3.63    -9.704002    1               +2.0000
iter:   6  13:07:59  -6.14  -3.65    -9.704005    1               +2.0000
iter:   7  13:08:04  -6.24  -3.63    -9.704002    1               +2.0000
iter:   8  13:08:09  -6.84  -3.92    -9.704002    1               +2.0000
iter:   9  13:08:14  -6.93  -4.11    -9.704002    1               +2.0000
iter:  10  13:08:19  -7.71  -4.50    -9.704002    1               +2.0000

Converged after 10 iterations.

Dipole moment: (-0.000357, 0.000015, 0.000023) |e|*Ang

Total magnetic moment: (0.000000, 0.000000, 1.999959)
Local magnetic moments:
   0 O  ( 0.000000,  0.000000,  0.712376)
   1 O  ( 0.000000,  0.000000,  0.712333)

Energy contributions relative to reference atoms: (reference = -4081.704602)

Kinetic:         +8.831213
Potential:       -9.639067
External:        +0.000000
XC:              -9.332930
Entropy (-ST):   -0.000050
Local:           +0.436806
--------------------------
Free energy:     -9.704027
Extrapolated:    -9.704002

Spin contamination: 0.037559 electrons
Fermi level: -5.69672

Showing only first 2 kpts
                      Up                     Down
 Kpt  Band  Eigenvalues  Occupancy  Eigenvalues  Occupancy
  0     4    -13.40500    0.11111    -11.54899    0.11111
  0     5     -6.87651    0.11111     -4.56065    0.00000
  0     6     -6.82680    0.11111     -4.52509    0.00000
  0     7     -0.28149    0.00000     -0.18345    0.00000

  1     4    -13.40404    0.22222    -11.54810    0.22222
  1     5     -6.87668    0.22222     -4.56084    0.00000
  1     6     -6.82692    0.22222     -4.52525    0.00000
  1     7     -0.14188    0.00000     -0.09564    0.00000



Forces in eV/Ang:
  0 O     0.04851   -0.01359   -0.02484
  1 O     0.00004   -0.00007    0.02351

Writing ir.0x-.pckl, dipole moment = (-0.000357 0.000015 0.000023)
System changes: positions 

Initializing position-dependent things.

Density initialized from wave functions
                
                
                
       O        
                
       O        
                
                
                

Positions:
   0 O      3.598000    6.214500   13.108982    ( 0.0000,  0.0000,  3.0000)
   1 O      3.588000    6.214500   11.891023    ( 0.0000,  0.0000,  3.0000)

Unit cell:
           periodic     x           y           z      points  spacing
  1. axis:    yes   14.352000    0.000000    0.000000    64     0.1942
  2. axis:    yes   -7.176000   12.429000    0.000000    64     0.1942
  3. axis:    no     0.000000    0.000000   25.000000   135     0.1852

  Lengths:  14.352000  14.351830  25.000000
  Angles:   90.000000  90.000000 120.000392

Effective grid spacing dv^(1/3) = 0.2005

                     log10-error:    total        iterations:
           time      wfs    density  energy       fermi  poisson  magmom
iter:   1  13:08:25  -2.08   +inf    -9.703399    1               +2.0000
iter:   2  13:08:30  -3.16  -2.91    -9.703979    1               +2.0000
iter:   3  13:08:35  -3.92  -2.87    -9.704064    1               +2.0000
iter:   4  13:08:40  -4.53  -2.79    -9.704006    1               +2.0000
iter:   5  13:08:45  -5.38  -3.20    -9.704009    1               +2.0000
iter:   6  13:08:50  -5.12  -3.20    -9.704052    1               +2.0000
iter:   7  13:08:55  -5.07  -3.17    -9.703999    1               +2.0000
iter:   8  13:09:00  -6.14  -3.48    -9.704004    1               +2.0000
iter:   9  13:09:05  -5.93  -3.61    -9.704004    1               +2.0000
iter:  10  13:09:10  -6.02  -3.90    -9.704002    1               +2.0000
iter:  11  13:09:15  -7.13  -4.08    -9.704003    1               +2.0000
iter:  12  13:09:20  -6.78  -3.98    -9.704002    1               +2.0000
iter:  13  13:09:25  -7.11  -4.39    -9.704002    1               +2.0000
iter:  14  13:09:30  -7.75  -4.53    -9.704002    1               +2.0000

Converged after 14 iterations.

Dipole moment: (0.000321, -0.000016, 0.000027) |e|*Ang

Total magnetic moment: (0.000000, 0.000000, 1.999961)
Local magnetic moments:
   0 O  ( 0.000000,  0.000000,  0.712337)
   1 O  ( 0.000000,  0.000000,  0.712381)

Energy contributions relative to reference atoms: (reference = -4081.704602)

Kinetic:         +8.832411
Potential:       -9.640090
External:        +0.000000
XC:              -9.333117
Entropy (-ST):   -0.000050
Local:           +0.436819
--------------------------
Free energy:     -9.704027
Extrapolated:    -9.704002

Spin contamination: 0.037559 electrons
Fermi level: -5.69665

Showing only first 2 kpts
                      Up                     Down
 Kpt  Band  Eigenvalues  Occupancy  Eigenvalues  Occupancy
  0     4    -13.40493    0.11111    -11.54892    0.11111
  0     5     -6.87644    0.11111     -4.56058    0.00000
  0     6     -6.82672    0.11111     -4.52502    0.00000
  0     7     -0.28915    0.00000     -0.18344    0.00000

  1     4    -13.40397    0.22222    -11.54803    0.22222
  1     5     -6.87661    0.22222     -4.56076    0.00000
  1     6     -6.82685    0.22222     -4.52518    0.00000
  1     7     -0.21895    0.00000     -0.09563    0.00000



Forces in eV/Ang:
  0 O    -0.04333    0.01383   -0.02451
  1 O     0.00131    0.00000    0.02322

Writing ir.0x+.pckl, dipole moment = (0.000321 -0.000016 0.000027)
System changes: positions 

Initializing position-dependent things.

Density initialized from wave functions
                
                
                
       O        
                
       O        
                
                
                

Positions:
   0 O      3.588000    6.204500   13.108982    ( 0.0000,  0.0000,  3.0000)
   1 O      3.588000    6.214500   11.891023    ( 0.0000,  0.0000,  3.0000)

Unit cell:
           periodic     x           y           z      points  spacing
  1. axis:    yes   14.352000    0.000000    0.000000    64     0.1942
  2. axis:    yes   -7.176000   12.429000    0.000000    64     0.1942
  3. axis:    no     0.000000    0.000000   25.000000   135     0.1852

  Lengths:  14.352000  14.351830  25.000000
  Angles:   90.000000  90.000000 120.000392

Effective grid spacing dv^(1/3) = 0.2005

                     log10-error:    total        iterations:
           time      wfs    density  energy       fermi  poisson  magmom
iter:   1  13:09:36  -2.39   +inf    -9.703787    1               +2.0000
iter:   2  13:09:41  -3.45  -3.06    -9.704078    1               +2.0000
iter:   3  13:09:46  -4.21  -3.02    -9.704121    1               +2.0000
iter:   4  13:09:51  -4.83  -2.94    -9.704091    1               +2.0000
iter:   5  13:09:56  -5.65  -3.38    -9.704092    1               +2.0000
iter:   6  13:10:01  -5.53  -3.38    -9.704109    1               +2.0000
iter:   7  13:10:06  -5.52  -3.35    -9.704088    1               +2.0000
iter:   8  13:10:11  -6.38  -3.61    -9.704091    1               +2.0000
iter:   9  13:10:16  -6.28  -3.75    -9.704090    1               +2.0000
iter:  10  13:10:21  -6.51  -4.12    -9.704089    1               +2.0000
iter:  11  13:10:26  -7.25  -4.32    -9.704089    1               +2.0000
iter:  12  13:10:31  -7.68  -4.51    -9.704089    1               +2.0000

Converged after 12 iterations.

Dipole moment: (0.000013, -0.000335, -0.000006) |e|*Ang

Total magnetic moment: (0.000000, 0.000000, 1.999961)
Local magnetic moments:
   0 O  ( 0.000000,  0.000000,  0.712305)
   1 O  ( 0.000000,  0.000000,  0.712405)

Energy contributions relative to reference atoms: (reference = -4081.704602)

Kinetic:         +8.832566
Potential:       -9.640289
External:        +0.000000
XC:              -9.333157
Entropy (-ST):   -0.000050
Local:           +0.436816
--------------------------
Free energy:     -9.704114
Extrapolated:    -9.704089

Spin contamination: 0.037580 electrons
Fermi level: -5.69669

Showing only first 2 kpts
                      Up                     Down
 Kpt  Band  Eigenvalues  Occupancy  Eigenvalues  Occupancy
  0     4    -13.40490    0.11111    -11.54893    0.11111
  0     5     -6.87656    0.11111     -4.56067    0.00000
  0     6     -6.82669    0.11111     -4.52503    0.00000
  0     7     -0.28925    0.00000     -0.18350    0.00000

  1     4    -13.40395    0.22222    -11.54805    0.22222
  1     5     -6.87674    0.22222     -4.56085    0.00000
  1     6     -6.82681    0.22222     -4.52519    0.00000
  1     7     -0.21907    0.00000     -0.09571    0.00000



Forces in eV/Ang:
  0 O    -0.01561    0.03068   -0.02526
  1 O    -0.00142   -0.00096    0.02274

Writing ir.0y-.pckl, dipole moment = (0.000013 -0.000335 -0.000006)
System changes: positions 

Initializing position-dependent things.

Density initialized from wave functions
                
                
                
       O        
                
       O        
                
                
                

Positions:
   0 O      3.588000    6.224500   13.108982    ( 0.0000,  0.0000,  3.0000)
   1 O      3.588000    6.214500   11.891023    ( 0.0000,  0.0000,  3.0000)

Unit cell:
           periodic     x           y           z      points  spacing
  1. axis:    yes   14.352000    0.000000    0.000000    64     0.1942
  2. axis:    yes   -7.176000   12.429000    0.000000    64     0.1942
  3. axis:    no     0.000000    0.000000   25.000000   135     0.1852

  Lengths:  14.352000  14.351830  25.000000
  Angles:   90.000000  90.000000 120.000392

Effective grid spacing dv^(1/3) = 0.2005

                     log10-error:    total        iterations:
           time      wfs    density  energy       fermi  poisson  magmom
iter:   1  13:10:37  -2.08   +inf    -9.703482    1               +2.0000
iter:   2  13:10:42  -3.15  -2.92    -9.704065    1               +2.0000
iter:   3  13:10:47  -3.91  -2.88    -9.704151    1               +2.0000
iter:   4  13:10:52  -4.53  -2.80    -9.704092    1               +2.0000
iter:   5  13:10:57  -5.34  -3.25    -9.704095    1               +2.0000
iter:   6  13:11:01  -5.26  -3.25    -9.704126    1               +2.0000
iter:   7  13:11:06  -5.30  -3.21    -9.704088    1               +2.0000
iter:   8  13:11:11  -6.23  -3.47    -9.704093    1               +2.0000
iter:   9  13:11:16  -5.98  -3.63    -9.704090    1               +2.0000
iter:  10  13:11:21  -6.28  -3.97    -9.704089    1               +2.0000
iter:  11  13:11:26  -7.17  -4.27    -9.704089    1               +2.0000
iter:  12  13:11:31  -7.65  -4.41    -9.704089    1               +2.0000

Converged after 12 iterations.

Dipole moment: (-0.000017, 0.000341, -0.000022) |e|*Ang

Total magnetic moment: (0.000000, 0.000000, 1.999960)
Local magnetic moments:
   0 O  ( 0.000000,  0.000000,  0.712277)
   1 O  ( 0.000000,  0.000000,  0.712432)

Energy contributions relative to reference atoms: (reference = -4081.704602)

Kinetic:         +8.832386
Potential:       -9.640127
External:        +0.000000
XC:              -9.333129
Entropy (-ST):   -0.000050
Local:           +0.436806
--------------------------
Free energy:     -9.704114
Extrapolated:    -9.704089

Spin contamination: 0.037581 electrons
Fermi level: -5.69670

Showing only first 2 kpts
                      Up                     Down
 Kpt  Band  Eigenvalues  Occupancy  Eigenvalues  Occupancy
  0     4    -13.40492    0.11111    -11.54895    0.11111
  0     5     -6.87658    0.11111     -4.56068    0.00000
  0     6     -6.82670    0.11111     -4.52505    0.00000
  0     7     -0.28926    0.00000     -0.18352    0.00000

  1     4    -13.40396    0.22222    -11.54806    0.22222
  1     5     -6.87675    0.22222     -4.56086    0.00000
  1     6     -6.82682    0.22222     -4.52520    0.00000
  1     7     -0.21908    0.00000     -0.09572    0.00000



Forces in eV/Ang:
  0 O     0.01605   -0.03114   -0.02548
  1 O     0.00007    0.00250    0.02256

Writing ir.0y+.pckl, dipole moment = (-0.000017 0.000341 -0.000022)
System changes: positions 

Initializing position-dependent things.

Density initialized from wave functions
                
                
                
       O        
                
       O        
                
                
                

Positions:
   0 O      3.588000    6.214500   13.098982    ( 0.0000,  0.0000,  3.0000)
   1 O      3.588000    6.214500   11.891023    ( 0.0000,  0.0000,  3.0000)

Unit cell:
           periodic     x           y           z      points  spacing
  1. axis:    yes   14.352000    0.000000    0.000000    64     0.1942
  2. axis:    yes   -7.176000   12.429000    0.000000    64     0.1942
  3. axis:    no     0.000000    0.000000   25.000000   135     0.1852

  Lengths:  14.352000  14.351830  25.000000
  Angles:   90.000000  90.000000 120.000392

Effective grid spacing dv^(1/3) = 0.2005

                     log10-error:    total        iterations:
           time      wfs    density  energy       fermi  poisson  magmom
iter:   1  13:11:37  -2.28   +inf    -9.701773    3               +2.0000
iter:   2  13:11:42  -3.75  -2.46    -9.701709    1               +2.0000
iter:   3  13:11:47  -2.88  -2.48    -9.702846    1               +2.0000
iter:   4  13:11:52  -4.20  -2.42    -9.701788    1               +2.0000
iter:   5  13:11:57  -3.86  -2.49    -9.704503    1               +2.0000
iter:   6  13:12:02  -3.22  -2.27    -9.700212    1               +2.0000
iter:   7  13:12:07  -4.71  -3.24    -9.700568    1               +2.0000
iter:   8  13:12:12  -5.14  -3.47    -9.700593    1               +2.0000
iter:   9  13:12:17  -5.74  -3.37    -9.700593    1               +2.0000
iter:  10  13:12:22  -6.48  -3.72    -9.700592    1               +2.0000
iter:  11  13:12:27  -7.35  -3.83    -9.700592    1               +2.0000
iter:  12  13:12:32  -6.63  -3.81    -9.700590    1               +2.0000
iter:  13  13:12:37  -6.64  -4.11    -9.700590    1               +2.0000
iter:  14  13:12:42  -6.53  -4.54    -9.700590    1               +2.0000
iter:  15  13:12:47  -7.60  -4.14    -9.700590    1               +2.0000

Converged after 15 iterations.

Dipole moment: (-0.000000, -0.000011, -0.000051) |e|*Ang

Total magnetic moment: (0.000000, 0.000000, 1.999961)
Local magnetic moments:
   0 O  ( 0.000000,  0.000000,  0.711360)
   1 O  ( 0.000000,  0.000000,  0.711569)

Energy contributions relative to reference atoms: (reference = -4081.704602)

Kinetic:         +9.778818
Potential:      -10.340135
External:        +0.000000
XC:              -9.575687
Entropy (-ST):   -0.000049
Local:           +0.436438
--------------------------
Free energy:     -9.700615
Extrapolated:    -9.700590

Spin contamination: 0.037413 electrons
Fermi level: -5.61362

Showing only first 2 kpts
                      Up                     Down
 Kpt  Band  Eigenvalues  Occupancy  Eigenvalues  Occupancy
  0     4    -13.49423    0.11111    -11.63956    0.11111
  0     5     -6.79429    0.11111     -4.47689    0.00000
  0     6     -6.74437    0.11111     -4.44123    0.00000
  0     7     -0.29013    0.00000     -0.18181    0.00000

  1     4    -13.49329    0.22222    -11.63869    0.22222
  1     5     -6.79443    0.22222     -4.47705    0.00000
  1     6     -6.74447    0.22222     -4.44136    0.00000
  1     7     -0.22000    0.00000     -0.09362    0.00000



Forces in eV/Ang:
  0 O     0.00002    0.00198    0.76189
  1 O     0.00003    0.00099   -0.79185

Writing ir.0z-.pckl, dipole moment = (-0.000000 -0.000011 -0.000051)
System changes: positions 

Initializing position-dependent things.

Density initialized from wave functions
                
                
                
       O        
                
       O        
                
                
                

Positions:
   0 O      3.588000    6.214500   13.118982    ( 0.0000,  0.0000,  3.0000)
   1 O      3.588000    6.214500   11.891023    ( 0.0000,  0.0000,  3.0000)

Unit cell:
           periodic     x           y           z      points  spacing
  1. axis:    yes   14.352000    0.000000    0.000000    64     0.1942
  2. axis:    yes   -7.176000   12.429000    0.000000    64     0.1942
  3. axis:    no     0.000000    0.000000   25.000000   135     0.1852

  Lengths:  14.352000  14.351830  25.000000
  Angles:   90.000000  90.000000 120.000392

Effective grid spacing dv^(1/3) = 0.2005

                     log10-error:    total        iterations:
           time      wfs    density  energy       fermi  poisson  magmom
iter:   1  13:12:53  -1.86   +inf    -9.705618    4               +2.0000
iter:   2  13:12:58  -3.38  -2.17    -9.704978    1               +2.0000
iter:   3  13:13:03  -2.14  -2.18    -9.713607    2               +2.0000
iter:   4  13:13:08  -3.76  -2.03    -9.710501    1               +2.0000
iter:   5  13:13:13  -4.30  -2.04    -9.712180    1               +2.0000
iter:   6  13:13:18  -2.45  -2.00    -9.700230    1               +2.0000
iter:   7  13:13:22  -3.49  -2.48    -9.700870    1               +2.0000
iter:   8  13:13:27  -4.18  -2.59    -9.700569    1               +2.0000
iter:   9  13:13:32  -3.36  -2.71    -9.704950    1               +2.0000
iter:  10  13:13:37  -3.55  -2.22    -9.701285    1               +2.0000
iter:  11  13:13:42  -3.34  -2.47    -9.700439    1               +2.0000
iter:  12  13:13:47  -4.19  -2.83    -9.700440    1               +2.0000
iter:  13  13:13:52  -4.75  -2.98    -9.700359    1               +2.0000
iter:  14  13:13:57  -4.75  -3.22    -9.700567    1               +2.0000
iter:  15  13:14:02  -5.94  -2.86    -9.700586    1               +2.0000
iter:  16  13:14:07  -6.78  -2.82    -9.700579    1               +2.0000
iter:  17  13:14:12  -6.65  -2.82    -9.700597    1               +2.0000
iter:  18  13:14:17  -4.12  -2.81    -9.700326    1               +2.0000
iter:  19  13:14:22  -5.47  -3.37    -9.700377    1               +2.0000
iter:  20  13:14:27  -4.60  -3.22    -9.700365    1               +2.0000
iter:  21  13:14:31  -5.08  -3.28    -9.700335    1               +2.0000
iter:  22  13:14:36  -5.72  -4.03    -9.700339    1               +2.0000
iter:  23  13:14:41  -5.04  -3.79    -9.700364    1               +2.0000
iter:  24  13:14:46  -5.44  -3.31    -9.700338    1               +2.0000
iter:  25  13:14:51  -7.37  -3.76    -9.700339    1               +2.0000
iter:  26  13:14:56  -6.21  -3.76    -9.700336    1               +2.0000
iter:  27  13:15:01  -7.46  -5.21    -9.700336    1               +2.0000

Converged after 27 iterations.

Dipole moment: (-0.000000, -0.000000, -0.000012) |e|*Ang

Total magnetic moment: (0.000000, 0.000000, 1.999960)
Local magnetic moments:
   0 O  ( 0.000000,  0.000000,  0.713279)
   1 O  ( 0.000000,  0.000000,  0.713045)

Energy contributions relative to reference atoms: (reference = -4081.704602)

Kinetic:         +7.931506
Potential:       -8.970886
External:        +0.000000
XC:              -9.098095
Entropy (-ST):   -0.000050
Local:           +0.437163
--------------------------
Free energy:     -9.700361
Extrapolated:    -9.700336

Spin contamination: 0.037873 electrons
Fermi level: -5.77747

Showing only first 2 kpts
                      Up                     Down
 Kpt  Band  Eigenvalues  Occupancy  Eigenvalues  Occupancy
  0     4    -13.31895    0.11111    -11.46175    0.11111
  0     5     -6.95656    0.11111     -4.64223    0.00000
  0     6     -6.90659    0.11111     -4.60659    0.00000
  0     7     -0.28881    0.00000     -0.18528    0.00000

  1     4    -13.31797    0.22222    -11.46084    0.22222
  1     5     -6.95678    0.22222     -4.64245    0.00000
  1     6     -6.90674    0.22222     -4.60677    0.00000
  1     7     -0.21859    0.00000     -0.09786    0.00000



Forces in eV/Ang:
  0 O     0.00001   -0.00000   -0.75203
  1 O     0.00000    0.00000    0.77681

Writing ir.0z+.pckl, dipole moment = (-0.000000 -0.000000 -0.000012)
System changes: positions 

Initializing position-dependent things.

Density initialized from wave functions
                
                
                
       O        
                
       O        
                
                
                

Positions:
   0 O      3.588000    6.214500   13.108982    ( 0.0000,  0.0000,  3.0000)
   1 O      3.578000    6.214500   11.891023    ( 0.0000,  0.0000,  3.0000)

Unit cell:
           periodic     x           y           z      points  spacing
  1. axis:    yes   14.352000    0.000000    0.000000    64     0.1942
  2. axis:    yes   -7.176000   12.429000    0.000000    64     0.1942
  3. axis:    no     0.000000    0.000000   25.000000   135     0.1852

  Lengths:  14.352000  14.351830  25.000000
  Angles:   90.000000  90.000000 120.000392

Effective grid spacing dv^(1/3) = 0.2005

                     log10-error:    total        iterations:
           time      wfs    density  energy       fermi  poisson  magmom
iter:   1  13:15:07  -2.23   +inf    -9.705126    3               +2.0000
iter:   2  13:15:12  -3.57  -2.48    -9.705113    1               +2.0000
iter:   3  13:15:17  -3.25  -2.49    -9.704637    1               +2.0000
iter:   4  13:15:22  -4.24  -2.65    -9.704306    1               +2.0000
iter:   5  13:15:27  -3.00  -2.72    -9.711974    2               +2.0000
iter:   6  13:15:32  -2.95  -2.13    -9.703558    1               +2.0000
iter:   7  13:15:37  -4.64  -2.81    -9.704094    1               +2.0000
iter:   8  13:15:42  -4.46  -2.93    -9.703972    1               +2.0000
iter:   9  13:15:47  -4.60  -3.53    -9.704093    1               +2.0000
iter:  10  13:15:52  -4.93  -3.08    -9.704011    1               +2.0000
iter:  11  13:15:57  -6.38  -3.41    -9.704012    1               +2.0000
iter:  12  13:16:02  -6.67  -3.47    -9.704019    1               +2.0000
iter:  13  13:16:07  -6.23  -3.41    -9.704006    1               +2.0000
iter:  14  13:16:12  -6.18  -3.64    -9.704001    1               +2.0000
iter:  15  13:16:17  -7.35  -4.25    -9.704002    1               +2.0000
iter:  16  13:16:22  -8.01  -4.42    -9.704002    1               +2.0000

Converged after 16 iterations.

Dipole moment: (-0.000359, 0.000015, -0.000061) |e|*Ang

Total magnetic moment: (0.000000, 0.000000, 1.999958)
Local magnetic moments:
   0 O  ( 0.000000,  0.000000,  0.712265)
   1 O  ( 0.000000,  0.000000,  0.712445)

Energy contributions relative to reference atoms: (reference = -4081.704602)

Kinetic:         +8.831284
Potential:       -9.639299
External:        +0.000000
XC:              -9.332905
Entropy (-ST):   -0.000050
Local:           +0.436942
--------------------------
Free energy:     -9.704027
Extrapolated:    -9.704002

Spin contamination: 0.037559 electrons
Fermi level: -5.69675

Showing only first 2 kpts
                      Up                     Down
 Kpt  Band  Eigenvalues  Occupancy  Eigenvalues  Occupancy
  0     4    -13.40504    0.11111    -11.54903    0.11111
  0     5     -6.87653    0.11111     -4.56068    0.00000
  0     6     -6.82682    0.11111     -4.52512    0.00000
  0     7     -0.28915    0.00000     -0.18344    0.00000

  1     4    -13.40408    0.22222    -11.54814    0.22222
  1     5     -6.87671    0.22222     -4.56086    0.00000
  1     6     -6.82695    0.22222     -4.52527    0.00000
  1     7     -0.21895    0.00000     -0.09563    0.00000



Forces in eV/Ang:
  0 O     0.00158    0.00002   -0.02149
  1 O     0.04854   -0.01366    0.02531

Writing ir.1x-.pckl, dipole moment = (-0.000359 0.000015 -0.000061)
System changes: positions 

Initializing position-dependent things.

Density initialized from wave functions
                
                
                
       O        
                
       O        
                
                
                

Positions:
   0 O      3.588000    6.214500   13.108982    ( 0.0000,  0.0000,  3.0000)
   1 O      3.598000    6.214500   11.891023    ( 0.0000,  0.0000,  3.0000)

Unit cell:
           periodic     x           y           z      points  spacing
  1. axis:    yes   14.352000    0.000000    0.000000    64     0.1942
  2. axis:    yes   -7.176000   12.429000    0.000000    64     0.1942
  3. axis:    no     0.000000    0.000000   25.000000   135     0.1852

  Lengths:  14.352000  14.351830  25.000000
  Angles:   90.000000  90.000000 120.000392

Effective grid spacing dv^(1/3) = 0.2005

                     log10-error:    total        iterations:
           time      wfs    density  energy       fermi  poisson  magmom
iter:   1  13:16:28  -2.08   +inf    -9.703395    1               +2.0000
iter:   2  13:16:33  -3.15  -2.91    -9.703979    1               +2.0000
iter:   3  13:16:38  -3.91  -2.87    -9.704069    0               +2.0000
iter:   4  13:16:43  -4.52  -2.78    -9.704009    1               +2.0000
iter:   5  13:16:48  -5.41  -3.11    -9.704014    1               +2.0000
iter:   6  13:16:53  -4.92  -3.11    -9.704080    1               +2.0000
iter:   7  13:16:58  -4.90  -3.10    -9.703997    1               +2.0000
iter:   8  13:17:03  -6.26  -3.45    -9.704003    1               +2.0000
iter:   9  13:17:08  -5.82  -3.56    -9.704003    1               +2.0000
iter:  10  13:17:13  -6.18  -4.07    -9.704003    1               +2.0000
iter:  11  13:17:18  -7.42  -3.98    -9.704003    1               +2.0000
iter:  12  13:17:23  -6.86  -3.95    -9.704002    1               +2.0000
iter:  13  13:17:28  -7.48  -4.47    -9.704002    1               +2.0000

Converged after 13 iterations.

Dipole moment: (0.000348, -0.000015, -0.000036) |e|*Ang

Total magnetic moment: (0.000000, 0.000000, 1.999961)
Local magnetic moments:
   0 O  ( 0.000000,  0.000000,  0.712344)
   1 O  ( 0.000000,  0.000000,  0.712375)

Energy contributions relative to reference atoms: (reference = -4081.704602)

Kinetic:         +8.832410
Potential:       -9.640082
External:        +0.000000
XC:              -9.333116
Entropy (-ST):   -0.000050
Local:           +0.436811
--------------------------
Free energy:     -9.704027
Extrapolated:    -9.704002

Spin contamination: 0.037559 electrons
Fermi level: -5.69664

Showing only first 2 kpts
                      Up                     Down
 Kpt  Band  Eigenvalues  Occupancy  Eigenvalues  Occupancy
  0     4    -13.40492    0.11111    -11.54891    0.11111
  0     5     -6.87643    0.11111     -4.56058    0.00000
  0     6     -6.82672    0.11111     -4.52502    0.00000
  0     7     -0.28915    0.00000     -0.18344    0.00000

  1     4    -13.40397    0.22222    -11.54803    0.22222
  1     5     -6.87661    0.22222     -4.56076    0.00000
  1     6     -6.82685    0.22222     -4.52517    0.00000
  1     7     -0.21895    0.00000     -0.09563    0.00000



Forces in eV/Ang:
  0 O    -0.00151   -0.00001   -0.02403
  1 O    -0.04617    0.01371    0.02449

Writing ir.1x+.pckl, dipole moment = (0.000348 -0.000015 -0.000036)
System changes: positions 

Initializing position-dependent things.

Density initialized from wave functions
                
                
                
       O        
                
       O        
                
                
                

Positions:
   0 O      3.588000    6.214500   13.108982    ( 0.0000,  0.0000,  3.0000)
   1 O      3.588000    6.204500   11.891023    ( 0.0000,  0.0000,  3.0000)

Unit cell:
           periodic     x           y           z      points  spacing
  1. axis:    yes   14.352000    0.000000    0.000000    64     0.1942
  2. axis:    yes   -7.176000   12.429000    0.000000    64     0.1942
  3. axis:    no     0.000000    0.000000   25.000000   135     0.1852

  Lengths:  14.352000  14.351830  25.000000
  Angles:   90.000000  90.000000 120.000392

Effective grid spacing dv^(1/3) = 0.2005

                     log10-error:    total        iterations:
           time      wfs    density  energy       fermi  poisson  magmom
iter:   1  13:17:33  -2.39   +inf    -9.703786    1               +2.0000
iter:   2  13:17:38  -3.45  -3.06    -9.704077    1               +2.0000
iter:   3  13:17:43  -4.21  -3.02    -9.704119    1               +2.0000
iter:   4  13:17:48  -4.86  -2.94    -9.704089    1               +2.0000
iter:   5  13:17:53  -5.64  -3.45    -9.704091    1               +2.0000
iter:   6  13:17:58  -5.79  -3.47    -9.704098    1               +2.0000
iter:   7  13:18:03  -5.91  -3.44    -9.704089    1               +2.0000
iter:   8  13:18:08  -6.59  -3.69    -9.704090    1               +2.0000
iter:   9  13:18:13  -6.40  -3.93    -9.704089    1               +2.0000
iter:  10  13:18:18  -7.23  -4.27    -9.704089    1               +2.0000
iter:  11  13:18:23  -7.55  -4.53    -9.704089    1               +2.0000

Converged after 11 iterations.

Dipole moment: (-0.000001, -0.000349, 0.000026) |e|*Ang

Total magnetic moment: (0.000000, 0.000000, 1.999959)
Local magnetic moments:
   0 O  ( 0.000000,  0.000000,  0.712360)
   1 O  ( 0.000000,  0.000000,  0.712346)

Energy contributions relative to reference atoms: (reference = -4081.704602)

Kinetic:         +8.832194
Potential:       -9.639972
External:        +0.000000
XC:              -9.333102
Entropy (-ST):   -0.000050
Local:           +0.436816
--------------------------
Free energy:     -9.704114
Extrapolated:    -9.704089

Spin contamination: 0.037581 electrons
Fermi level: -5.69671

Showing only first 2 kpts
                      Up                     Down
 Kpt  Band  Eigenvalues  Occupancy  Eigenvalues  Occupancy
  0     4    -13.40492    0.11111    -11.54895    0.11111
  0     5     -6.87658    0.11111     -4.56069    0.00000
  0     6     -6.82670    0.11111     -4.52506    0.00000
  0     7     -0.28925    0.00000     -0.18351    0.00000

  1     4    -13.40396    0.22222    -11.54806    0.22222
  1     5     -6.87676    0.22222     -4.56087    0.00000
  1     6     -6.82683    0.22222     -4.52521    0.00000
  1     7     -0.21907    0.00000     -0.09571    0.00000



Forces in eV/Ang:
  0 O    -0.00144   -0.00101   -0.02460
  1 O    -0.01313    0.03321    0.02386

Writing ir.1y-.pckl, dipole moment = (-0.000001 -0.000349 0.000026)
System changes: positions 

Initializing position-dependent things.

Density initialized from wave functions
                
                
                
       O        
                
       O        
                
                
                

Positions:
   0 O      3.588000    6.214500   13.108982    ( 0.0000,  0.0000,  3.0000)
   1 O      3.588000    6.224500   11.891023    ( 0.0000,  0.0000,  3.0000)

Unit cell:
           periodic     x           y           z      points  spacing
  1. axis:    yes   14.352000    0.000000    0.000000    64     0.1942
  2. axis:    yes   -7.176000   12.429000    0.000000    64     0.1942
  3. axis:    no     0.000000    0.000000   25.000000   135     0.1852

  Lengths:  14.352000  14.351830  25.000000
  Angles:   90.000000  90.000000 120.000392

Effective grid spacing dv^(1/3) = 0.2005

                     log10-error:    total        iterations:
           time      wfs    density  energy       fermi  poisson  magmom
iter:   1  13:18:29  -2.08   +inf    -9.703481    1               +2.0000
iter:   2  13:18:34  -3.15  -2.92    -9.704064    1               +2.0000
iter:   3  13:18:39  -3.91  -2.88    -9.704148    1               +2.0000
iter:   4  13:18:44  -4.56  -2.80    -9.704090    1               +2.0000
iter:   5  13:18:49  -5.34  -3.31    -9.704093    1               +2.0000
iter:   6  13:18:54  -5.46  -3.32    -9.704109    1               +2.0000
iter:   7  13:18:59  -5.59  -3.29    -9.704090    1               +2.0000
iter:   8  13:19:04  -6.28  -3.52    -9.704092    1               +2.0000
iter:   9  13:19:09  -6.04  -3.75    -9.704090    1               +2.0000
iter:  10  13:19:14  -6.80  -4.09    -9.704089    1               +2.0000
iter:  11  13:19:19  -7.35  -4.44    -9.704089    1               +2.0000
iter:  12  13:19:24  -7.03  -4.45    -9.704089    1               +2.0000
iter:  13  13:19:29  -7.69  -4.37    -9.704089    1               +2.0000

Converged after 13 iterations.

Dipole moment: (-0.000017, 0.000345, -0.000034) |e|*Ang

Total magnetic moment: (0.000000, 0.000000, 1.999960)
Local magnetic moments:
   0 O  ( 0.000000,  0.000000,  0.712341)
   1 O  ( 0.000000,  0.000000,  0.712367)

Energy contributions relative to reference atoms: (reference = -4081.704602)

Kinetic:         +8.833063
Potential:       -9.640730
External:        +0.000000
XC:              -9.333223
Entropy (-ST):   -0.000050
Local:           +0.436826
--------------------------
Free energy:     -9.704114
Extrapolated:    -9.704089

Spin contamination: 0.037580 electrons
Fermi level: -5.69666

Showing only first 2 kpts
                      Up                     Down
 Kpt  Band  Eigenvalues  Occupancy  Eigenvalues  Occupancy
  0     4    -13.40487    0.11111    -11.54891    0.11111
  0     5     -6.87653    0.11111     -4.56064    0.00000
  0     6     -6.82666    0.11111     -4.52501    0.00000
  0     7     -0.28925    0.00000     -0.18350    0.00000

  1     4    -13.40392    0.22222    -11.54802    0.22222
  1     5     -6.87671    0.22222     -4.56083    0.00000
  1     6     -6.82678    0.22222     -4.52517    0.00000
  1     7     -0.21907    0.00000     -0.09570    0.00000



Forces in eV/Ang:
  0 O    -0.00002   -0.00145   -0.02317
  1 O     0.01615   -0.03191    0.02518

Writing ir.1y+.pckl, dipole moment = (-0.000017 0.000345 -0.000034)
System changes: positions 

Initializing position-dependent things.

Density initialized from wave functions
                
                
                
       O        
                
       O        
                
                
                

Positions:
   0 O      3.588000    6.214500   13.108982    ( 0.0000,  0.0000,  3.0000)
   1 O      3.588000    6.214500   11.881023    ( 0.0000,  0.0000,  3.0000)

Unit cell:
           periodic     x           y           z      points  spacing
  1. axis:    yes   14.352000    0.000000    0.000000    64     0.1942
  2. axis:    yes   -7.176000   12.429000    0.000000    64     0.1942
  3. axis:    no     0.000000    0.000000   25.000000   135     0.1852

  Lengths:  14.352000  14.351830  25.000000
  Angles:   90.000000  90.000000 120.000392

Effective grid spacing dv^(1/3) = 0.2005

                     log10-error:    total        iterations:
           time      wfs    density  energy       fermi  poisson  magmom
iter:   1  13:19:35  -2.27   +inf    -9.701483    3               +2.0000
iter:   2  13:19:40  -3.73  -2.47    -9.701430    1               +2.0000
iter:   3  13:19:45  -2.88  -2.48    -9.702369    1               +2.0000
iter:   4  13:19:50  -4.22  -2.44    -9.701361    1               +2.0000
iter:   5  13:19:54  -3.80  -2.51    -9.704124    1               +2.0000
iter:   6  13:19:59  -3.26  -2.27    -9.699986    1               +2.0000
iter:   7  13:20:04  -4.71  -3.09    -9.700311    1               +2.0000
iter:   8  13:20:09  -4.88  -3.39    -9.700339    1               +2.0000
iter:   9  13:20:14  -5.54  -3.35    -9.700338    1               +2.0000
iter:  10  13:20:19  -6.48  -3.83    -9.700337    1               +2.0000
iter:  11  13:20:24  -7.31  -3.92    -9.700338    1               +2.0000
iter:  12  13:20:29  -7.15  -3.90    -9.700337    1               +2.0000
iter:  13  13:20:34  -6.56  -4.04    -9.700336    1               +2.0000
iter:  14  13:20:39  -7.80  -4.47    -9.700337    1               +2.0000

Converged after 14 iterations.

Dipole moment: (-0.000000, -0.000007, 0.000138) |e|*Ang

Total magnetic moment: (0.000000, 0.000000, 1.999959)
Local magnetic moments:
   0 O  ( 0.000000,  0.000000,  0.713023)
   1 O  ( 0.000000,  0.000000,  0.713292)

Energy contributions relative to reference atoms: (reference = -4081.704602)

Kinetic:         +7.932667
Potential:       -8.971779
External:        +0.000000
XC:              -9.098303
Entropy (-ST):   -0.000050
Local:           +0.437104
--------------------------
Free energy:     -9.700362
Extrapolated:    -9.700337

Spin contamination: 0.037873 electrons
Fermi level: -5.77737

Showing only first 2 kpts
                      Up                     Down
 Kpt  Band  Eigenvalues  Occupancy  Eigenvalues  Occupancy
  0     4    -13.31884    0.11111    -11.46165    0.11111
  0     5     -6.95646    0.11111     -4.64214    0.00000
  0     6     -6.90648    0.11111     -4.60650    0.00000
  0     7     -0.28881    0.00000     -0.18529    0.00000

  1     4    -13.31786    0.22222    -11.46074    0.22222
  1     5     -6.95667    0.22222     -4.64236    0.00000
  1     6     -6.90664    0.22222     -4.60668    0.00000
  1     7     -0.21860    0.00000     -0.09787    0.00000



Forces in eV/Ang:
  0 O     0.00001    0.00082   -0.78154
  1 O    -0.00002   -0.00007    0.74872

Writing ir.1z-.pckl, dipole moment = (-0.000000 -0.000007 0.000138)
System changes: positions 

Initializing position-dependent things.

Density initialized from wave functions
                
                
                
       O        
                
       O        
                
                
                

Positions:
   0 O      3.588000    6.214500   13.108982    ( 0.0000,  0.0000,  3.0000)
   1 O      3.588000    6.214500   11.901023    ( 0.0000,  0.0000,  3.0000)

Unit cell:
           periodic     x           y           z      points  spacing
  1. axis:    yes   14.352000    0.000000    0.000000    64     0.1942
  2. axis:    yes   -7.176000   12.429000    0.000000    64     0.1942
  3. axis:    no     0.000000    0.000000   25.000000   135     0.1852

  Lengths:  14.352000  14.351830  25.000000
  Angles:   90.000000  90.000000 120.000392

Effective grid spacing dv^(1/3) = 0.2005

                     log10-error:    total        iterations:
           time      wfs    density  energy       fermi  poisson  magmom
iter:   1  13:20:45  -1.91   +inf    -9.705443    4               +2.0000
iter:   2  13:20:50  -3.42  -2.18    -9.704871    1               +2.0000
iter:   3  13:20:55  -2.24  -2.20    -9.710761    2               +2.0000
iter:   4  13:21:00  -3.85  -2.10    -9.708100    1               +2.0000
iter:   5  13:21:05  -4.09  -2.11    -9.711541    1               +2.0000
iter:   6  13:21:10  -2.59  -2.04    -9.699742    2               +2.0000
iter:   7  13:21:15  -3.84  -2.75    -9.700773    1               +2.0000
iter:   8  13:21:20  -4.03  -2.79    -9.700577    1               +2.0000
iter:   9  13:21:25  -3.60  -3.18    -9.701636    1               +2.0000
iter:  10  13:21:30  -3.68  -2.55    -9.700509    1               +2.0000
iter:  11  13:21:35  -4.83  -3.71    -9.700603    1               +2.0000
iter:  12  13:21:40  -5.95  -3.48    -9.700601    1               +2.0000
iter:  13  13:21:45  -5.94  -3.51    -9.700590    1               +2.0000
iter:  14  13:21:49  -6.47  -3.93    -9.700594    1               +2.0000
iter:  15  13:21:54  -7.14  -3.72    -9.700595    1               +2.0000
iter:  16  13:21:59  -6.02  -3.65    -9.700589    1               +2.0000
iter:  17  13:22:04  -7.34  -4.59    -9.700590    1               +2.0000
iter:  18  13:22:09  -7.24  -4.66    -9.700590    1               +2.0000
iter:  19  13:22:14  -7.24  -4.44    -9.700590    1               +2.0000
iter:  20  13:22:19  -8.97  -5.14    -9.700590    1               +2.0000

Converged after 20 iterations.

Dipole moment: (-0.000000, -0.000000, -0.000042) |e|*Ang

Total magnetic moment: (0.000000, 0.000000, 1.999961)
Local magnetic moments:
   0 O  ( 0.000000,  0.000000,  0.711500)
   1 O  ( 0.000000,  0.000000,  0.711418)

Energy contributions relative to reference atoms: (reference = -4081.704602)

Kinetic:         +9.782380
Potential:      -10.342662
External:        +0.000000
XC:              -9.576126
Entropy (-ST):   -0.000049
Local:           +0.435843
--------------------------
Free energy:     -9.700614
Extrapolated:    -9.700590

Spin contamination: 0.037412 electrons
Fermi level: -5.61347

Showing only first 2 kpts
                      Up                     Down
 Kpt  Band  Eigenvalues  Occupancy  Eigenvalues  Occupancy
  0     4    -13.49407    0.11111    -11.63942    0.11111
  0     5     -6.79413    0.11111     -4.47675    0.00000
  0     6     -6.74421    0.11111     -4.44108    0.00000
  0     7     -0.29013    0.00000     -0.18183    0.00000

  1     4    -13.49313    0.22222    -11.63855    0.22222
  1     5     -6.79427    0.22222     -4.47690    0.00000
  1     6     -6.74431    0.22222     -4.44122    0.00000
  1     7     -0.22000    0.00000     -0.09363    0.00000



Forces in eV/Ang:
  0 O     0.00001   -0.00000    0.79383
  1 O     0.00001   -0.00001   -0.75858

Writing ir.1z+.pckl, dipole moment = (-0.000000 -0.000000 -0.000042)
-------------------------------------
 Mode    Frequency        Intensity
  #    meV     cm^-1   
-------------------------------------
  0   28.3i    228.5i     0.0000
  1   23.8     191.7      0.0025
  2   25.2     202.9      0.0007
  3   37.8     305.2      0.0005
  4   38.3     308.9      0.0032
  5  200.7    1618.6      0.0001
-------------------------------------
Zero-point energy: 0.163 eV
Static dipole moment: 0.000 D
Maximum force on atom in `equilibrium`: 0.0190 eV/A

Timing:                                      incl.     excl.
-------------------------------------------------------------------
Density initialized from wave functions:     6.752     6.751   0.7% |
 Symmetrize density:                         0.001     0.001   0.0% |
Forces:                                      8.500     8.500   0.8% |
Hamiltonian:                                43.642     0.328   0.0% |
 Atomic:                                     0.940     0.940   0.1% |
  XC Correction:                             0.000     0.000   0.0% |
 Calculate atomic Hamiltonians:              0.594     0.594   0.1% |
 Communicate:                                0.012     0.012   0.0% |
 Initialize Hamiltonian:                     0.007     0.007   0.0% |
 Poisson:                                    0.162     0.162   0.0% |
 XC 3D grid:                                41.599    41.599   4.1% |-|
LCAO initialization:                         0.404     0.082   0.0% |
 LCAO eigensolver:                           0.045     0.000   0.0% |
  Calculate projections:                     0.000     0.000   0.0% |
  DenseAtomicCorrection:                     0.000     0.000   0.0% |
  Distribute overlap matrix:                 0.000     0.000   0.0% |
  Orbital Layouts:                           0.040     0.040   0.0% |
  Potential matrix:                          0.004     0.004   0.0% |
  Sum over cells:                            0.000     0.000   0.0% |
 LCAO to grid:                               0.269     0.269   0.0% |
 Set positions (LCAO WFS):                   0.008     0.003   0.0% |
  Basic WFS set positions:                   0.000     0.000   0.0% |
  Basis functions set positions:             0.000     0.000   0.0% |
  P tci:                                     0.001     0.001   0.0% |
  ST tci:                                    0.001     0.001   0.0% |
  mktci:                                     0.003     0.003   0.0% |
PWDescriptor:                                0.180     0.180   0.0% |
Redistribute:                                0.009     0.009   0.0% |
SCF-cycle:                                 944.320     2.435   0.2% |
 Davidson:                                 206.164    23.138   2.3% ||
  Apply H:                                  84.580    82.119   8.1% |--|
   HMM T:                                    2.460     2.460   0.2% |
  Subspace diag:                            32.626     0.026   0.0% |
   calc_h_matrix:                           29.955     0.783   0.1% |
    Apply H:                                29.172    28.137   2.8% ||
     HMM T:                                  1.034     1.034   0.1% |
   diagonalize:                              0.408     0.408   0.0% |
   rotate_psi:                               2.237     2.237   0.2% |
  calc. matrices:                           61.623     5.833   0.6% |
   Apply H:                                 55.790    54.200   5.4% |-|
    HMM T:                                   1.590     1.590   0.2% |
  diagonalize:                               0.139     0.139   0.0% |
  rotate_psi:                                4.058     4.058   0.4% |
 Density:                                  108.982     0.006   0.0% |
  Atomic density matrices:                   0.162     0.162   0.0% |
  Mix:                                      88.558    88.558   8.8% |---|
  Multipole moments:                         0.024     0.024   0.0% |
  Pseudo density:                           20.231    20.218   2.0% ||
   Symmetrize density:                       0.012     0.012   0.0% |
 Hamiltonian:                              626.329     4.559   0.5% |
  Atomic:                                   13.985    13.984   1.4% ||
   XC Correction:                            0.001     0.001   0.0% |
  Calculate atomic Hamiltonians:             8.429     8.429   0.8% |
  Communicate:                               0.092     0.092   0.0% |
  Poisson:                                   2.450     2.450   0.2% |
  XC 3D grid:                              596.813   596.813  59.0% |-----------------------|
 Orthonormalize:                             0.411     0.002   0.0% |
  calc_s_matrix:                             0.041     0.041   0.0% |
  inverse-cholesky:                          0.027     0.027   0.0% |
  projections:                               0.243     0.243   0.0% |
  rotate_psi_s:                              0.097     0.097   0.0% |
Set symmetry:                                0.001     0.001   0.0% |
Other:                                       7.089     7.089   0.7% |
-------------------------------------------------------------------
Total:                                              1010.897 100.0%

Memory usage: 758.60 MiB
Date: Thu Nov 21 13:22:20 2019
