
  ___ ___ ___ _ _ _  
 |   |   |_  | | | | 
 | | | | | . | | | | 
 |__ |  _|___|_____|  1.5.1
 |___|_|             

User:   siva@s66n41.grendel.cscaa.dk
Date:   Sat Feb 29 07:45:48 2020
Arch:   x86_64
Pid:    79254
Python: 3.6.3
gpaw:   /home/siva/gpaw-1.5.1/gpaw
_gpaw:  /home/siva/gpaw-1.5.1/build/bin.linux-x86_64-3.6/gpaw-python
ase:    /home/siva/env1.5/lib/python3.6/site-packages/ase (version 3.17.0)
numpy:  /home/siva/env1.5/lib/python3.6/site-packages/numpy (version 1.16.0)
scipy:  /home/siva/env1.5/lib/python3.6/site-packages/scipy (version 1.2.0)
units:  Angstrom and eV
cores:  16
Extra parameters: {'blacs': True}

Input parameters:
  basis: dzp
  kpts: [2 2 1]
  mode: {ecut: 500.0,
         gammacentered: False,
         name: pw}
  xc: PBE

System changes: positions, numbers, cell, pbc, initial_charges, initial_magmoms 

Initialize ...

O-setup:
  name: Oxygen
  id: 32ecd46bf208036f09c70b0ec9a88b78
  Z: 8
  valence: 6
  core: 2
  charge: 0.0
  file: /home/wido/sw/gpaw/basis/gpaw-setups-0.9.20000/O.PBE.gz
  cutoffs: 0.67(comp), 1.17(filt), 0.83(core), lmax=2
  valence states:
                energy  radius
    2s(2.00)   -23.961   0.688
    2p(4.00)    -9.029   0.598
    *s           3.251   0.688
    *p          18.182   0.598
    *d           0.000   0.619

  LCAO basis set for O:
    Name: dzp
    File: /home/wido/sw/gpaw/basis/gpaw-setups-0.9.20000/O.dzp.basis.gz
    Number of radial functions: 5
    Number of spherical harmonics: 13
      l=0, rc=4.3438 Bohr: 2s-sz confined orbital
      l=1, rc=5.3906 Bohr: 2p-sz confined orbital
      l=0, rc=2.2969 Bohr: 2s-dz split-valence wave
      l=1, rc=2.8906 Bohr: 2p-dz split-valence wave
      l=2, rc=5.3906 Bohr: d-type Gaussian polarization

Ti-setup:
  name: Titanium
  id: d282db07e62ae71292040bf25b25ccdd
  Z: 22
  valence: 12
  core: 10
  charge: 0.0
  file: /home/wido/sw/gpaw/basis/gpaw-setups-0.9.20000/Ti.PBE.gz
  cutoffs: 1.22(comp), 2.23(filt), 1.02(core), lmax=2
  valence states:
                energy  radius
    3s(2.00)   -62.623   1.270
    4s(2.00)    -4.466   1.270
    3p(6.00)   -38.862   1.058
    4p(0.00)    -1.466   1.058
    3d(2.00)    -4.258   1.058
    *d          22.953   1.058

  LCAO basis set for Ti:
    Name: dzp
    File: /home/wido/sw/gpaw/basis/gpaw-setups-0.9.20000/Ti.dzp.basis.gz
    Number of radial functions: 11
    Number of spherical harmonics: 29
      l=0, rc=3.4375 Bohr: 3s-sz confined orbital
      l=0, rc=9.9062 Bohr: 4s-sz confined orbital
      l=1, rc=3.8906 Bohr: 3p-sz confined orbital
      l=1, rc=13.1094 Bohr: 4p-sz confined orbital
      l=2, rc=6.6250 Bohr: 3d-sz confined orbital
      l=0, rc=2.1406 Bohr: 3s-dz split-valence wave
      l=0, rc=6.0156 Bohr: 4s-dz split-valence wave
      l=1, rc=2.3125 Bohr: 3p-dz split-valence wave
      l=1, rc=8.1094 Bohr: 4p-dz split-valence wave
      l=2, rc=3.8594 Bohr: 3d-dz split-valence wave
      l=1, rc=9.9062 Bohr: p-type Gaussian polarization

V-setup:
  name: Vanadium
  id: a8354638d66c808f8c867a10b63fd727
  Z: 23
  valence: 13
  core: 10
  charge: 0.0
  file: /home/wido/sw/gpaw/basis/gpaw-setups-0.9.20000/V.PBE.gz
  cutoffs: 1.19(comp), 2.14(filt), 0.96(core), lmax=2
  valence states:
                energy  radius
    3s(2.00)   -70.222   1.254
    4s(2.00)    -4.702   1.254
    3p(6.00)   -44.043   1.281
    4p(0.00)    -1.444   1.281
    3d(3.00)    -5.164   1.169
    *d          22.047   1.169

  LCAO basis set for V:
    Name: dzp
    File: /home/wido/sw/gpaw/basis/gpaw-setups-0.9.20000/V.dzp.basis.gz
    Number of radial functions: 11
    Number of spherical harmonics: 29
      l=0, rc=3.2656 Bohr: 3s-sz confined orbital
      l=0, rc=9.5312 Bohr: 4s-sz confined orbital
      l=1, rc=3.6719 Bohr: 3p-sz confined orbital
      l=1, rc=12.8750 Bohr: 4p-sz confined orbital
      l=2, rc=6.0938 Bohr: 3d-sz confined orbital
      l=0, rc=2.0625 Bohr: 3s-dz split-valence wave
      l=0, rc=5.7656 Bohr: 4s-dz split-valence wave
      l=1, rc=2.4062 Bohr: 3p-dz split-valence wave
      l=1, rc=7.8906 Bohr: 4p-dz split-valence wave
      l=2, rc=3.6562 Bohr: 3d-dz split-valence wave
      l=1, rc=9.5312 Bohr: p-type Gaussian polarization

H-setup:
  name: Hydrogen
  id: d65de229564ff8ea4db303e23b6d1ecf
  Z: 1
  valence: 1
  core: 0
  charge: 0.0
  file: /home/wido/sw/gpaw/basis/gpaw-setups-0.9.20000/H.PBE.gz
  cutoffs: 0.48(comp), 0.85(filt), 0.53(core), lmax=2
  valence states:
                energy  radius
    1s(1.00)    -6.494   0.476
    *s          20.717   0.476
    *p           0.000   0.476

  LCAO basis set for H:
    Name: dzp
    File: /home/wido/sw/gpaw/basis/gpaw-setups-0.9.20000/H.dzp.basis.gz
    Number of radial functions: 3
    Number of spherical harmonics: 5
      l=0, rc=6.4219 Bohr: 1s-sz confined orbital
      l=0, rc=3.6094 Bohr: 1s-dz split-valence wave
      l=1, rc=6.4219 Bohr: p-type Gaussian polarization

Reference energy: -935653.237240

Spin-paired calculation

Occupation numbers:
  Fermi-Dirac: width=0.1000 eV

Convergence criteria:
  Maximum total energy change: 0.0005 eV / electron
  Maximum integral of absolute density change: 0.0001 electrons
  Maximum integral of absolute eigenstate change: 4e-08 eV^2
  Maximum number of iterations: 333

Symmetries present (total): 1

  ( 1  0  0)
  ( 0  1  0)
  ( 0  0  1)

4 k-points: 2 x 2 x 1 Monkhorst-Pack grid
2 k-points in the irreducible part of the Brillouin zone
       k-points in crystal coordinates                weights
   0:     0.25000000   -0.25000000    0.00000000          2/4
   1:     0.25000000    0.25000000    0.00000000          2/4

Wave functions: Plane wave expansion
  Cutoff energy: 500.000 eV
  Number of coefficients (min, max): 94343, 94343
  Pulay-stress correction: 0.000000 eV/Ang^3 (de/decut=0.000000)
  Using FFTW library
  ScaLapack parameters: grid=1x1, blocksize=None
  Wavefunction extrapolation:
    Improved wavefunction reuse through dual PAW basis 

Eigensolver
   Davidson(niter=2, smin=None, normalize=True) 

Densities:
  Coarse grid: 54*80*125 grid
  Fine grid: 108*160*250 grid
  Total Charge: 0.000000 

Density mixing:
  Method: separate
  Backend: pulay
  Linear mixing parameter: 0.05
  Mixing with 5 old densities
  Damping of long wave oscillations: 50 

Hamiltonian:
  XC and Coulomb potentials evaluated on a 108*160*250 grid
  Using the PBE Exchange-Correlation functional
 

XC parameters: PBE with 2 nearest neighbor stencil

Memory estimate:
  Process memory now: 319.72 MiB
  Calculator: 1561.19 MiB
    Density: 41.63 MiB
      Arrays: 13.51 MiB
      Localized functions: 22.84 MiB
      Mixer: 5.27 MiB
    Hamiltonian: 9.49 MiB
      Arrays: 8.83 MiB
      XC: 0.00 MiB
      Poisson: 0.00 MiB
      vbar: 0.66 MiB
    Wavefunctions: 1510.07 MiB
      Arrays psit_nG: 719.78 MiB
      Eigensolver: 765.14 MiB
      Projections: 1.45 MiB
      Projectors: 2.61 MiB
      PW-descriptor: 21.09 MiB

Total number of cores used: 16
Parallelization over k-points: 2
Domain decomposition: 1 x 2 x 4

Number of atoms: 105
Number of atomic orbitals: 1893
Number of bands in calculation: 500
Bands to converge: occupied states only
Number of valence electrons: 826

... initialized

Initializing position-dependent things.

Density initialized from atomic densities
Creating initial wave functions:
  500 bands from LCAO basis set

          .------------------------.  
         /|                        |  
        / |                        |  
       /  |                        |  
      /   |                        |  
     /    |                        |  
    /     |                        |  
   /      |                        |  
  /       |                        |  
 *        |                        |  
 |        |                        |  
 |        |                        |  
 |        |                    O   |  
 |        O   H  O          O      |  
 |        |   Oi      O  H  OV     |  
 |     O  |   O V  O      Oi     Ti|  
 |        | TO     Oi     O   O    |  
 |    O   |      O     OTi    TiO  |  
 |        TiO     O    O    O      |  
 |        OTi   TiO  O TiO  Tii    |  
 |  O  O  |O  TiTi   Ti    O  O  O |  
 |      Tii  O OO   OOO   O        |  
 |      OO| O     OTii    Tii      |  
 |   O Ti | Tii     O   OO     O   |  
 |    O   |O     OOTi    Oi        |  
 |  Ti    |Oi  O  O    O     O     |  
 |  O    O|     Ti    Ti           |  
 |       Ti         O      O       |  
 |        |  O                     |  
 |        .------------------------.  
 |       /                        /   
 |      /                        /    
 |     /                        /     
 |    /                        /      
 |   /                        /       
 |  /                        /        
 | /                        /         
 |/                        /          
 *------------------------*           

Positions:
   0 O      9.985175    2.817512    7.418325    ( 0.0000,  0.0000,  0.0000)
   1 O      4.783264    0.944026    7.429735    ( 0.0000,  0.0000,  0.0000)
   2 Ti     2.996728    0.947334    8.325345    ( 0.0000,  0.0000,  0.0000)
   3 Ti     8.219380    2.762325    8.290231    ( 0.0000,  0.0000,  0.0000)
   4 Ti     0.657013    2.834279    8.996630    ( 0.0000,  0.0000,  0.0000)
   5 Ti     5.869204    0.907478    8.959613    ( 0.0000,  0.0000,  0.0000)
   6 O      1.103363    0.956808    8.933081    ( 0.0000,  0.0000,  0.0000)
   7 O      6.329588    2.829609    8.956631    ( 0.0000,  0.0000,  0.0000)
   8 O      9.244581    2.827586    9.849813    ( 0.0000,  0.0000,  0.0000)
   9 O      4.076120    0.928629    9.858025    ( 0.0000,  0.0000,  0.0000)
  10 O      7.779315    0.904056    8.349312    ( 0.0000,  0.0000,  0.0000)
  11 O      2.595771    2.888574    8.400027    ( 0.0000,  0.0000,  0.0000)
  12 O      1.092757    2.869405   11.028940    ( 0.0000,  0.0000,  0.0000)
  13 O      6.276647    0.915545   10.977285    ( 0.0000,  0.0000,  0.0000)
  14 Ti     4.409206    0.941291   11.950090    ( 0.0000,  0.0000,  0.0000)
  15 Ti     9.590902    2.841728   11.968252    ( 0.0000,  0.0000,  0.0000)
  16 Ti     2.025743    2.833666   12.550281    ( 0.0000,  0.0000,  0.0000)
  17 Ti     7.209023    0.948034   12.490211    ( 0.0000,  0.0000,  0.0000)
  18 O      2.570334    0.962131   12.757102    ( 0.0000,  0.0000,  0.0000)
  19 O      7.699400    2.877966   12.642636    ( 0.0000,  0.0000,  0.0000)
  20 O      0.382615    2.853661   13.406161    ( 0.0000,  0.0000,  0.0000)
  21 O      5.579772    1.002021   13.366502    ( 0.0000,  0.0000,  0.0000)
  22 O      9.186944    0.955346   11.982536    ( 0.0000,  0.0000,  0.0000)
  23 O      3.980009    2.906096   11.871175    ( 0.0000,  0.0000,  0.0000)
  24 O      9.991278    6.701856    7.416697    ( 0.0000,  0.0000,  0.0000)
  25 O      4.640266    4.766143    7.909177    ( 0.0000,  0.0000,  0.0000)
  26 Ti     2.785188    4.773225    7.999495    ( 0.0000,  0.0000,  0.0000)
  27 Ti     8.229211    6.736926    8.289676    ( 0.0000,  0.0000,  0.0000)
  28 Ti     0.713114    6.678008    9.182537    ( 0.0000,  0.0000,  0.0000)
  29 Ti     6.097007    4.748224    9.019115    ( 0.0000,  0.0000,  0.0000)
  30 O      1.068649    4.768040    8.949376    ( 0.0000,  0.0000,  0.0000)
  31 O      6.345333    6.683354    8.967611    ( 0.0000,  0.0000,  0.0000)
  32 O      9.250078    6.673119    9.846712    ( 0.0000,  0.0000,  0.0000)
  33 O      7.808095    4.756638    8.258519    ( 0.0000,  0.0000,  0.0000)
  34 O      2.604899    6.643057    8.416669    ( 0.0000,  0.0000,  0.0000)
  35 O      1.071284    6.586387   11.129017    ( 0.0000,  0.0000,  0.0000)
  36 O      6.014488    4.756568   10.980989    ( 0.0000,  0.0000,  0.0000)
  37 Ti     4.392155    4.731825   12.283315    ( 0.0000,  0.0000,  0.0000)
  38 Ti     9.640536    6.669891   11.944833    ( 0.0000,  0.0000,  0.0000)
  39 Ti     2.052976    6.644901   12.897460    ( 0.0000,  0.0000,  0.0000)
  40 Ti     7.224156    4.770118   12.415500    ( 0.0000,  0.0000,  0.0000)
  41 O      2.552965    4.710717   12.974732    ( 0.0000,  0.0000,  0.0000)
  42 O      7.674904    6.630718   12.753696    ( 0.0000,  0.0000,  0.0000)
  43 O      0.327409    6.696098   13.492943    ( 0.0000,  0.0000,  0.0000)
  44 O      5.690005    4.742072   13.514007    ( 0.0000,  0.0000,  0.0000)
  45 O      9.138797    4.772565   11.879680    ( 0.0000,  0.0000,  0.0000)
  46 O      3.965393    6.555605   11.816860    ( 0.0000,  0.0000,  0.0000)
  47 O      9.986778   10.513690    7.368738    ( 0.0000,  0.0000,  0.0000)
  48 O      4.837462    8.581566    7.404937    ( 0.0000,  0.0000,  0.0000)
  49 Ti     2.951323    8.588260    8.230297    ( 0.0000,  0.0000,  0.0000)
  50 Ti     8.135229   10.562779    8.208054    ( 0.0000,  0.0000,  0.0000)
  51 Ti     0.703342   10.528005    9.039919    ( 0.0000,  0.0000,  0.0000)
  52 Ti     5.913467    8.584452    8.939847    ( 0.0000,  0.0000,  0.0000)
  53 O      1.126777    8.573547    8.964116    ( 0.0000,  0.0000,  0.0000)
  54 O      6.301630   10.503252    8.965499    ( 0.0000,  0.0000,  0.0000)
  55 O      9.257931   10.435313    9.752852    ( 0.0000,  0.0000,  0.0000)
  56 O      4.081221    8.578441    9.762693    ( 0.0000,  0.0000,  0.0000)
  57 O      7.788076    8.609499    8.329822    ( 0.0000,  0.0000,  0.0000)
  58 O      2.604964   10.485475    8.378379    ( 0.0000,  0.0000,  0.0000)
  59 O      1.035639   10.547288   11.081817    ( 0.0000,  0.0000,  0.0000)
  60 O      6.205582    8.494376   11.071742    ( 0.0000,  0.0000,  0.0000)
  61 Ti     4.283210    8.444774   11.659430    ( 0.0000,  0.0000,  0.0000)
  62 Ti     9.456810   10.578171   11.687330    ( 0.0000,  0.0000,  0.0000)
  63 Ti     2.152658   10.553888   12.571677    ( 0.0000,  0.0000,  0.0000)
  64 Ti     7.272341    8.536095   12.570738    ( 0.0000,  0.0000,  0.0000)
  65 O      2.514323    8.565005   12.458626    ( 0.0000,  0.0000,  0.0000)
  66 O      7.667234   10.474485   12.452757    ( 0.0000,  0.0000,  0.0000)
  67 O      0.097220   10.494893   13.453090    ( 0.0000,  0.0000,  0.0000)
  68 O      5.281009    8.542167   13.433997    ( 0.0000,  0.0000,  0.0000)
  69 O      9.080779    8.532726   11.862789    ( 0.0000,  0.0000,  0.0000)
  70 O      3.920837   10.518703   11.858259    ( 0.0000,  0.0000,  0.0000)
  71 O      9.957030   14.309259    7.417550    ( 0.0000,  0.0000,  0.0000)
  72 O      4.798233   12.398394    7.474657    ( 0.0000,  0.0000,  0.0000)
  73 Ti     3.057499   12.413847    8.312568    ( 0.0000,  0.0000,  0.0000)
  74 Ti     8.179529   14.346737    8.308888    ( 0.0000,  0.0000,  0.0000)
  75 Ti     0.684192   14.303754    8.970902    ( 0.0000,  0.0000,  0.0000)
  76 Ti     5.883075   12.439503    9.140100    ( 0.0000,  0.0000,  0.0000)
  77 O      1.099276   12.399258    8.928075    ( 0.0000,  0.0000,  0.0000)
  78 O      6.275489   14.321207    8.946084    ( 0.0000,  0.0000,  0.0000)
  79 O      9.256793   14.385324    9.842472    ( 0.0000,  0.0000,  0.0000)
  80 O      4.056595   12.445376    9.891929    ( 0.0000,  0.0000,  0.0000)
  81 O      7.783982   12.420145    8.403254    ( 0.0000,  0.0000,  0.0000)
  82 O      2.592515   14.315095    8.372199    ( 0.0000,  0.0000,  0.0000)
  83 O      1.114145   14.334302   10.991762    ( 0.0000,  0.0000,  0.0000)
  84 O      6.239756   12.451029   11.103019    ( 0.0000,  0.0000,  0.0000)
  85 Ti     4.491272   12.422614   11.946109    ( 0.0000,  0.0000,  0.0000)
  86 Ti     9.582332   14.328043   11.946890    ( 0.0000,  0.0000,  0.0000)
  87 Ti     2.038015   14.319819   12.511575    ( 0.0000,  0.0000,  0.0000)
  88 Ti     7.254488   12.439410   12.861917    ( 0.0000,  0.0000,  0.0000)
  89 O      2.515957   12.421279   12.775913    ( 0.0000,  0.0000,  0.0000)
  90 O      7.730962   14.346051   12.762848    ( 0.0000,  0.0000,  0.0000)
  91 O      0.405840   14.315671   13.374851    ( 0.0000,  0.0000,  0.0000)
  92 O      5.533685   12.364919   13.481361    ( 0.0000,  0.0000,  0.0000)
  93 O      9.167842   12.429500   11.828683    ( 0.0000,  0.0000,  0.0000)
  94 O      4.023236   14.328438   12.011416    ( 0.0000,  0.0000,  0.0000)
  95 V      3.966351    8.526727   14.699915    ( 0.0000,  0.0000,  0.0000)
  96 O      2.876847   10.083576   14.540635    ( 0.0000,  0.0000,  0.0000)
  97 O      3.038425    7.066189   14.533133    ( 0.0000,  0.0000,  0.0000)
  98 O      4.626390    8.584346   16.143397    ( 0.0000,  0.0000,  0.0000)
  99 V      9.127559   10.553458   14.712428    ( 0.0000,  0.0000,  0.0000)
 100 O      9.787850   10.525524   16.156662    ( 0.0000,  0.0000,  0.0000)
 101 O      8.032420    9.002258   14.572925    ( 0.0000,  0.0000,  0.0000)
 102 O      8.209183   12.017730   14.507666    ( 0.0000,  0.0000,  0.0000)
 103 H      8.018569    8.367002   15.313507    ( 0.0000,  0.0000,  0.0000)
 104 H      2.881828   10.737608   15.265000    ( 0.0000,  0.0000,  0.0000)

Unit cell:
           periodic     x           y           z      points  spacing
  1. axis:    yes   10.341746    0.000000    0.000000    54     0.1915
  2. axis:    yes   -0.000000   15.289380    0.000000    80     0.1911
  3. axis:    yes    0.000000    0.000000   23.497201   125     0.1880

  Lengths:  10.341746  15.289380  23.497201
  Angles:   90.000000  90.000000  90.000000

Effective grid spacing dv^(1/3) = 0.1902

                     log10-error:    total        iterations:
           time      wfs    density  energy       fermi  poisson
iter:   1  07:48:28  -0.10   +inf  -978.684663    4             
iter:   2  07:49:21  -0.95  -0.95  -936.242816    28            
iter:   3  07:50:13  +0.45  -1.00  -856.481018    36            
iter:   4  07:51:05  -0.92  -1.34  -864.908811    36            
iter:   5  07:51:58  -1.16  -1.29  -876.299569    31            
iter:   6  07:52:50  -0.81  -1.27  -866.717719    3             
iter:   7  07:53:43  -0.30  -1.50  -867.095748    35            
iter:   8  07:54:35  -1.69  -1.69  -862.277433    35            
iter:   9  07:55:27  -0.82  -1.74  -863.624712    5             
iter:  10  07:56:20  -1.60  -1.70  -859.870184    33            
iter:  11  07:57:12  -1.54  -2.08  -860.510209    4             
iter:  12  07:58:05  -2.26  -2.09  -859.830497    3             
iter:  13  07:58:57  -2.80  -2.14  -859.775917    4             
iter:  14  07:59:49  -3.18  -2.16  -859.675208    5             
iter:  15  08:00:42  -2.33  -2.24  -860.007606    3             
iter:  16  08:01:34  -2.35  -2.33  -859.842799    5             
iter:  17  08:02:26  -3.28  -2.50  -859.729153    3             
iter:  18  08:03:19  -3.40  -2.65  -859.683973    3             
iter:  19  08:04:11  -3.50  -2.83  -859.691607    3             
iter:  20  08:05:04  -4.00  -3.00  -859.679514    2             
iter:  21  08:05:56  -4.36  -3.13  -859.687135    3             
iter:  22  08:06:48  -4.57  -3.22  -859.678086    3             
iter:  23  08:07:41  -4.49  -3.23  -859.680681    3             
iter:  24  08:08:33  -5.03  -3.56  -859.681316    3             
iter:  25  08:09:25  -5.59  -3.74  -859.680923    3             
iter:  26  08:10:18  -5.56  -3.75  -859.680527    2             
iter:  27  08:11:10  -5.87  -3.78  -859.680725    2             
iter:  28  08:12:03  -5.94  -3.83  -859.680527    2             
iter:  29  08:12:55  -6.13  -3.90  -859.680505    2             
iter:  30  08:13:47  -6.45  -3.99  -859.680233    2             
iter:  31  08:14:40  -6.66  -4.07  -859.680541    2             
iter:  32  08:15:32  -6.85  -4.21  -859.680352    2             
iter:  33  08:16:24  -7.09  -4.41  -859.680361    2             
iter:  34  08:17:17  -7.26  -4.50  -859.680341    2             
iter:  35  08:18:09  -7.16  -4.64  -859.680405    2             
iter:  36  08:19:01  -7.52  -4.84  -859.680390    2             

Converged after 36 iterations.

Dipole moment: (2.880278, -3.182467, -0.709789) |e|*Ang

Energy contributions relative to reference atoms: (reference = -935653.237240)

Kinetic:       +613.513509
Potential:     -782.085812
External:        +0.000000
XC:            -697.213359
Entropy (-ST):   -0.528544
Local:           +6.369544
--------------------------
Free energy:   -859.944662
Extrapolated:  -859.680390

Fermi level: -1.22378

Showing all kpts
 Kpt  Band  Eigenvalues  Occupancy
  0   411     -3.34777    1.00000
  0   412     -1.17500    0.38041
  0   413     -1.12369    0.26876
  0   414     -1.05755    0.15945

  1   411     -3.34778    1.00000
  1   412     -1.17091    0.37083
  1   413     -1.12668    0.27469
  1   414     -1.06377    0.16797



Forces in eV/Ang:
  0 O    -1.40874   -0.07183    1.18645
  1 O    -1.03089    0.00937    1.29498
  2 Ti    2.53387   -0.06636    1.27700
  3 Ti    2.43940    0.65566    0.93459
  4 Ti   -0.28896    0.10721   -1.10720
  5 Ti   -1.71387    0.28573   -1.03352
  6 O     0.27406   -0.18249   -0.11467
  7 O     0.28146    0.07907   -0.09960
  8 O    -0.95182   -0.05850   -0.28329
  9 O    -0.70266    0.02716   -0.24513
 10 O     0.11431    0.51235   -1.09731
 11 O     0.16311   -0.19156   -0.71560
 12 O    -0.00123   -0.00060    0.00345
 13 O     0.00026    0.00084    0.00490
 14 Ti    0.00220   -0.00130    0.00123
 15 Ti    0.00315   -0.00006    0.00157
 16 Ti   -0.00350    0.00027    0.00069
 17 Ti   -0.00388   -0.00037   -0.00191
 18 O     0.00106    0.00094   -0.00194
 19 O     0.00118    0.00011   -0.00176
 20 O     0.00164   -0.00079   -0.00974
 21 O     0.00075   -0.00002   -0.00858
 22 O    -0.00114   -0.00094    0.00197
 23 O    -0.00082   -0.00066    0.00345
 24 O    -1.66244   -0.00392    1.98459
 25 O    -0.28452   -0.02115    0.27451
 26 Ti    0.47532    0.08328    0.47302
 27 Ti    3.77379   -0.03143    0.19316
 28 Ti   -0.81148   -0.00105   -1.90240
 29 Ti   -0.73695    0.23884   -0.06254
 30 O     0.13081   -0.15275    0.05187
 31 O    -0.02630   -0.35049   -0.00810
 32 O    -0.97414    0.02008    0.31269
 33 O     0.04679   -0.27510   -0.72877
 34 O     0.19837    0.16278   -0.74307
 35 O    -0.00313   -0.00059    0.00006
 36 O     0.00161   -0.00029    0.00392
 37 Ti   -0.00062   -0.00088    0.00077
 38 Ti    0.00322    0.00303    0.00134
 39 Ti   -0.00141   -0.00234   -0.00049
 40 Ti   -0.00227   -0.00301   -0.00110
 41 O     0.00268    0.00021   -0.00167
 42 O     0.00126   -0.00067   -0.00203
 43 O     0.00096   -0.00146   -0.00725
 44 O     0.00230   -0.00091   -0.00876
 45 O    -0.00190    0.00027    0.00193
 46 O    -0.00021    0.00219    0.00384
 47 O    -1.36539    0.09205    1.98940
 48 O    -1.01496   -0.05171    1.24859
 49 Ti    2.63133   -0.04144    1.08266
 50 Ti    3.37456   -0.43085    0.62632
 51 Ti   -0.81457   -0.09099   -2.41527
 52 Ti   -1.35365    0.11987   -1.26554
 53 O     0.25949    0.08259    0.13124
 54 O     0.09582    0.14893    0.06355
 55 O    -1.19687    0.15732    0.55876
 56 O    -0.92109    0.02080    0.14874
 57 O     0.12031    0.06161   -1.04395
 58 O     0.23826   -0.00872   -0.81412
 59 O    -0.00272   -0.00024    0.00244
 60 O    -0.00041   -0.00076    0.00854
 61 Ti    0.00189   -0.00008   -0.00023
 62 Ti   -0.00002   -0.00014    0.00406
 63 Ti    0.00170   -0.00004    0.00033
 64 Ti    0.00006    0.00094   -0.00228
 65 O     0.00195   -0.00244    0.00088
 66 O     0.00269    0.00002    0.00062
 67 O     0.00141    0.00025   -0.00549
 68 O    -0.00087   -0.00068   -0.00209
 69 O    -0.00237   -0.00243    0.00380
 70 O    -0.00326    0.00109    0.00329
 71 O    -1.23466    0.04182    1.32264
 72 O    -1.36348    0.05811    1.60410
 73 Ti    2.78630   -0.05508    0.89780
 74 Ti    3.14429   -0.89440    1.00169
 75 Ti   -0.95917   -0.06049   -1.42702
 76 Ti   -1.04927   -0.51655   -1.31087
 77 O     0.10993    0.13551    0.00272
 78 O     0.18107   -0.02248   -0.04922
 79 O    -0.82275   -0.05577   -0.08292
 80 O    -0.64676   -0.01783   -0.09771
 81 O     0.01596    0.18416   -0.72029
 82 O     0.22118    0.27984   -0.87669
 83 O    -0.00067    0.00007    0.00446
 84 O    -0.00343    0.00053   -0.00060
 85 Ti    0.00140   -0.00194    0.00182
 86 Ti    0.00005   -0.00176    0.00146
 87 Ti   -0.00081    0.00004   -0.00113
 88 Ti   -0.00090    0.00073    0.00126
 89 O     0.00054   -0.00089   -0.00224
 90 O     0.00212    0.00113   -0.00125
 91 O     0.00055    0.00024   -0.00721
 92 O     0.00241    0.00067   -0.00743
 93 O     0.00074   -0.00356    0.00199
 94 O    -0.00110   -0.00000    0.00155
 95 V     0.00215    0.00107    0.00164
 96 O     0.00147   -0.00161   -0.00334
 97 O    -0.00097    0.00118   -0.00322
 98 O    -0.00242   -0.00114   -0.00455
 99 V    -0.00187   -0.00108    0.00375
100 O     0.00032    0.00198   -0.00206
101 O     0.00279    0.00605   -0.00353
102 O    -0.00070   -0.00187   -0.00563
103 H    -0.00153    0.00109   -0.00029
104 H    -0.00334   -0.00294    0.00182

Timing:                              incl.     excl.
-----------------------------------------------------------
Forces:                             23.942    23.942   1.2% |
Hamiltonian:                         2.411     0.014   0.0% |
 Atomic:                             0.380     0.002   0.0% |
  XC Correction:                     0.378     0.378   0.0% |
 Calculate atomic Hamiltonians:      1.464     1.464   0.1% |
 Communicate:                        0.046     0.046   0.0% |
 Initialize Hamiltonian:             0.001     0.001   0.0% |
 Poisson:                            0.004     0.004   0.0% |
 XC 3D grid:                         0.502     0.502   0.0% |
LCAO initialization:               100.151     2.488   0.1% |
 LCAO eigensolver:                  26.313     0.010   0.0% |
  Calculate projections:             0.000     0.000   0.0% |
  DenseAtomicCorrection:             0.000     0.000   0.0% |
  Distribute overlap matrix:        11.565    11.565   0.6% |
  Orbital Layouts:                  14.087    14.087   0.7% |
  Potential matrix:                  0.322     0.322   0.0% |
  Sum over cells:                    0.328     0.328   0.0% |
 LCAO to grid:                      68.121    68.121   3.4% ||
 Set positions (LCAO WFS):           3.229     2.392   0.1% |
  Basic WFS set positions:           0.005     0.005   0.0% |
  Basis functions set positions:     0.001     0.001   0.0% |
  P tci:                             0.002     0.002   0.0% |
  ST tci:                            0.498     0.498   0.0% |
  mktci:                             0.332     0.332   0.0% |
PWDescriptor:                        0.087     0.087   0.0% |
SCF-cycle:                        1885.440     0.071   0.0% |
 Davidson:                        1701.947   528.975  26.2% |---------|
  Apply H:                         230.794   225.986  11.2% |---|
   HMM T:                            4.808     4.808   0.2% |
  Subspace diag:                   206.832     0.005   0.0% |
   calc_h_matrix:                  121.766    44.951   2.2% ||
    Apply H:                        76.815    75.110   3.7% ||
     HMM T:                          1.705     1.705   0.1% |
   diagonalize:                      7.362     7.362   0.4% |
   rotate_psi:                      77.698    77.698   3.9% |-|
  calc. matrices:                  467.875   315.734  15.6% |-----|
   Apply H:                        152.141   148.979   7.4% |--|
    HMM T:                           3.162     3.162   0.2% |
  diagonalize:                     108.982   108.982   5.4% |-|
  rotate_psi:                      158.490   158.490   7.9% |--|
 Density:                           95.095     0.001   0.0% |
  Atomic density matrices:           0.471     0.471   0.0% |
  Mix:                              53.078    53.078   2.6% ||
  Multipole moments:                 0.040     0.040   0.0% |
  Pseudo density:                   41.505    41.504   2.1% ||
   Symmetrize density:               0.001     0.001   0.0% |
 Hamiltonian:                       82.991     0.558   0.0% |
  Atomic:                           13.287     0.055   0.0% |
   XC Correction:                   13.232    13.232   0.7% |
  Calculate atomic Hamiltonians:    49.805    49.805   2.5% ||
  Communicate:                       1.683     1.683   0.1% |
  Poisson:                           0.156     0.156   0.0% |
  XC 3D grid:                       17.502    17.502   0.9% |
 Orthonormalize:                     5.336     0.000   0.0% |
  calc_s_matrix:                     0.694     0.694   0.0% |
  inverse-cholesky:                  0.128     0.128   0.0% |
  projections:                       3.406     3.406   0.2% |
  rotate_psi_s:                      1.108     1.108   0.1% |
Set symmetry:                        0.001     0.001   0.0% |
Other:                               5.907     5.907   0.3% |
-----------------------------------------------------------
Total:                                      2017.939 100.0%

Memory usage: 1.23 GiB
Date: Sat Feb 29 08:19:26 2020
