
  ___ ___ ___ _ _ _  
 |   |   |_  | | | | 
 | | | | | . | | | | 
 |__ |  _|___|_____|  1.5.1
 |___|_|             

User:   siva@s82n11.grendel.cscaa.dk
Date:   Fri May 24 21:05:41 2019
Arch:   x86_64
Pid:    2171
Python: 3.6.3
gpaw:   /home/siva/gpaw-1.5.1/gpaw
_gpaw:  /home/siva/gpaw-1.5.1/build/bin.linux-x86_64-3.6/gpaw-python
ase:    /home/siva/env1.5/lib/python3.6/site-packages/ase (version 3.17.0)
numpy:  /home/siva/env1.5/lib/python3.6/site-packages/numpy (version 1.16.0)
scipy:  /home/siva/env1.5/lib/python3.6/site-packages/scipy (version 1.2.0)
units:  Angstrom and eV
cores:  28
Extra parameters: {'blacs': True}

Input parameters:
  basis: dzp
  kpts: [3 3 1]
  mode: {ecut: 500.0,
         gammacentered: False,
         name: pw}
  xc: PBE

System changes: positions, numbers, cell, pbc, initial_charges, initial_magmoms 

Initialize ...

O-setup:
  name: Oxygen
  id: 32ecd46bf208036f09c70b0ec9a88b78
  Z: 8
  valence: 6
  core: 2
  charge: 0.0
  file: /home/wido/sw/gpaw/basis/gpaw-setups-0.9.20000/O.PBE.gz
  cutoffs: 0.67(comp), 1.17(filt), 0.83(core), lmax=2
  valence states:
                energy  radius
    2s(2.00)   -23.961   0.688
    2p(4.00)    -9.029   0.598
    *s           3.251   0.688
    *p          18.182   0.598
    *d           0.000   0.619

  LCAO basis set for O:
    Name: dzp
    File: /home/wido/sw/gpaw/basis/gpaw-setups-0.9.20000/O.dzp.basis.gz
    Number of radial functions: 5
    Number of spherical harmonics: 13
      l=0, rc=4.3438 Bohr: 2s-sz confined orbital
      l=1, rc=5.3906 Bohr: 2p-sz confined orbital
      l=0, rc=2.2969 Bohr: 2s-dz split-valence wave
      l=1, rc=2.8906 Bohr: 2p-dz split-valence wave
      l=2, rc=5.3906 Bohr: d-type Gaussian polarization

Ti-setup:
  name: Titanium
  id: d282db07e62ae71292040bf25b25ccdd
  Z: 22
  valence: 12
  core: 10
  charge: 0.0
  file: /home/wido/sw/gpaw/basis/gpaw-setups-0.9.20000/Ti.PBE.gz
  cutoffs: 1.22(comp), 2.23(filt), 1.02(core), lmax=2
  valence states:
                energy  radius
    3s(2.00)   -62.623   1.270
    4s(2.00)    -4.466   1.270
    3p(6.00)   -38.862   1.058
    4p(0.00)    -1.466   1.058
    3d(2.00)    -4.258   1.058
    *d          22.953   1.058

  LCAO basis set for Ti:
    Name: dzp
    File: /home/wido/sw/gpaw/basis/gpaw-setups-0.9.20000/Ti.dzp.basis.gz
    Number of radial functions: 11
    Number of spherical harmonics: 29
      l=0, rc=3.4375 Bohr: 3s-sz confined orbital
      l=0, rc=9.9062 Bohr: 4s-sz confined orbital
      l=1, rc=3.8906 Bohr: 3p-sz confined orbital
      l=1, rc=13.1094 Bohr: 4p-sz confined orbital
      l=2, rc=6.6250 Bohr: 3d-sz confined orbital
      l=0, rc=2.1406 Bohr: 3s-dz split-valence wave
      l=0, rc=6.0156 Bohr: 4s-dz split-valence wave
      l=1, rc=2.3125 Bohr: 3p-dz split-valence wave
      l=1, rc=8.1094 Bohr: 4p-dz split-valence wave
      l=2, rc=3.8594 Bohr: 3d-dz split-valence wave
      l=1, rc=9.9062 Bohr: p-type Gaussian polarization

V-setup:
  name: Vanadium
  id: a8354638d66c808f8c867a10b63fd727
  Z: 23
  valence: 13
  core: 10
  charge: 0.0
  file: /home/wido/sw/gpaw/basis/gpaw-setups-0.9.20000/V.PBE.gz
  cutoffs: 1.19(comp), 2.14(filt), 0.96(core), lmax=2
  valence states:
                energy  radius
    3s(2.00)   -70.222   1.254
    4s(2.00)    -4.702   1.254
    3p(6.00)   -44.043   1.281
    4p(0.00)    -1.444   1.281
    3d(3.00)    -5.164   1.169
    *d          22.047   1.169

  LCAO basis set for V:
    Name: dzp
    File: /home/wido/sw/gpaw/basis/gpaw-setups-0.9.20000/V.dzp.basis.gz
    Number of radial functions: 11
    Number of spherical harmonics: 29
      l=0, rc=3.2656 Bohr: 3s-sz confined orbital
      l=0, rc=9.5312 Bohr: 4s-sz confined orbital
      l=1, rc=3.6719 Bohr: 3p-sz confined orbital
      l=1, rc=12.8750 Bohr: 4p-sz confined orbital
      l=2, rc=6.0938 Bohr: 3d-sz confined orbital
      l=0, rc=2.0625 Bohr: 3s-dz split-valence wave
      l=0, rc=5.7656 Bohr: 4s-dz split-valence wave
      l=1, rc=2.4062 Bohr: 3p-dz split-valence wave
      l=1, rc=7.8906 Bohr: 4p-dz split-valence wave
      l=2, rc=3.6562 Bohr: 3d-dz split-valence wave
      l=1, rc=9.5312 Bohr: p-type Gaussian polarization

H-setup:
  name: Hydrogen
  id: d65de229564ff8ea4db303e23b6d1ecf
  Z: 1
  valence: 1
  core: 0
  charge: 0.0
  file: /home/wido/sw/gpaw/basis/gpaw-setups-0.9.20000/H.PBE.gz
  cutoffs: 0.48(comp), 0.85(filt), 0.53(core), lmax=2
  valence states:
                energy  radius
    1s(1.00)    -6.494   0.476
    *s          20.717   0.476
    *p           0.000   0.476

  LCAO basis set for H:
    Name: dzp
    File: /home/wido/sw/gpaw/basis/gpaw-setups-0.9.20000/H.dzp.basis.gz
    Number of radial functions: 3
    Number of spherical harmonics: 5
      l=0, rc=6.4219 Bohr: 1s-sz confined orbital
      l=0, rc=3.6094 Bohr: 1s-dz split-valence wave
      l=1, rc=6.4219 Bohr: p-type Gaussian polarization

Reference energy: -1046916.965077

Spin-paired calculation

Occupation numbers:
  Fermi-Dirac: width=0.1000 eV

Convergence criteria:
  Maximum total energy change: 0.0005 eV / electron
  Maximum integral of absolute density change: 0.0001 electrons
  Maximum integral of absolute eigenstate change: 4e-08 eV^2
  Maximum number of iterations: 333

Symmetries present (total): 1

  ( 1  0  0)
  ( 0  1  0)
  ( 0  0  1)

9 k-points: 3 x 3 x 1 Monkhorst-Pack grid
5 k-points in the irreducible part of the Brillouin zone
       k-points in crystal coordinates                weights
   0:     0.00000000    0.00000000    0.00000000          1/9
   1:     0.00000000    0.33333333    0.00000000          2/9
   2:     0.33333333   -0.33333333    0.00000000          2/9
   3:     0.33333333    0.00000000    0.00000000          2/9
   4:     0.33333333    0.33333333    0.00000000          2/9

Wave functions: Plane wave expansion
  Cutoff energy: 500.000 eV
  Number of coefficients (min, max): 70673, 70768
  Pulay-stress correction: 0.000000 eV/Ang^3 (de/decut=0.000000)
  Using FFTW library
  ScaLapack parameters: grid=1x1, blocksize=None
  Wavefunction extrapolation:
    Improved wavefunction reuse through dual PAW basis 

Eigensolver
   Davidson(niter=2, smin=None, normalize=True) 

Densities:
  Coarse grid: 54*60*125 grid
  Fine grid: 108*120*250 grid
  Total Charge: 0.000000 

Density mixing:
  Method: separate
  Backend: pulay
  Linear mixing parameter: 0.05
  Mixing with 5 old densities
  Damping of long wave oscillations: 50 

Hamiltonian:
  XC and Coulomb potentials evaluated on a 108*120*250 grid
  Using the PBE Exchange-Correlation functional
 

XC parameters: PBE with 2 nearest neighbor stencil

Memory estimate:
  Process memory now: 274.72 MiB
  Calculator: 3721.44 MiB
    Density: 8.90 MiB
      Arrays: 2.89 MiB
      Localized functions: 4.89 MiB
      Mixer: 1.11 MiB
    Hamiltonian: 2.03 MiB
      Arrays: 1.89 MiB
      XC: 0.00 MiB
      Poisson: 0.00 MiB
      vbar: 0.14 MiB
    Wavefunctions: 3710.51 MiB
      Arrays psit_nG: 3028.93 MiB
      Eigensolver: 659.23 MiB
      Projections: 2.61 MiB
      Projectors: 2.80 MiB
      PW-descriptor: 16.94 MiB

Total number of cores used: 28
Domain decomposition: 2 x 2 x 7

Number of atoms: 118
Number of atomic orbitals: 2126
Number of bands in calculation: 561
Bands to converge: occupied states only
Number of valence electrons: 928

... initialized

Initializing position-dependent things.

Density initialized from atomic densities
Creating initial wave functions:
  561 bands from LCAO basis set

                                                
                                                
                                                
                                                
                                                
                                                
                      O                         
                                                
              O     O V O       Ti              
                  Oi O   O      O    O          
                       OV   OO      Ti          
           O H TiHO     O    Ti   O             
               O      Oi   O O                  
         O     O    O      Ti     Ti            
             Tii   OOi     OO   O               
              O   O     O Ti   TiOi             
          O Ti   TiO      O   O      O          
           O    O      OTi    TiO               
                TiO      O  O  O   O Ti         
         Ti   O O    O Oi    Ti     O           
         O     Ti    Ti    OTi  O Ti            
             OTi    O O   O                     
                  O Ti     Oi     O             
             Oi     O    O      Ti              
           O     OTi    Ti     O                
          Ti          O      O                  
               O                                
                                                
                                                
                                                
                                                

Positions:
   0 O      8.476572    1.911173    6.000000    ( 0.0000,  0.0000,  0.0000)
   1 O      3.305699    0.000000    6.000000    ( 0.0000,  0.0000,  0.0000)
   2 Ti     1.412752    0.000000    6.752957    ( 0.0000,  0.0000,  0.0000)
   3 Ti     6.583625    1.911173    6.752957    ( 0.0000,  0.0000,  0.0000)
   4 Ti     9.522250    1.911173    7.640878    ( 0.0000,  0.0000,  0.0000)
   5 Ti     4.351376    0.000000    7.640878    ( 0.0000,  0.0000,  0.0000)
   6 O      9.861551    0.000000    7.505914    ( 0.0000,  0.0000,  0.0000)
   7 O      4.690678    1.911173    7.505914    ( 0.0000,  0.0000,  0.0000)
   8 O      7.629303    1.911173    8.393834    ( 0.0000,  0.0000,  0.0000)
   9 O      2.458430    0.000000    8.393834    ( 0.0000,  0.0000,  0.0000)
  10 O      6.244323    0.000000    6.887921    ( 0.0000,  0.0000,  0.0000)
  11 O      1.073450    1.911173    6.887921    ( 0.0000,  0.0000,  0.0000)
  12 O      9.811511    1.918691    9.593149    ( 0.0000,  0.0000,  0.0000)
  13 O      4.640715    0.005790    9.579875    ( 0.0000,  0.0000,  0.0000)
  14 Ti     2.756460    0.021463   10.385325    ( 0.0000,  0.0000,  0.0000)
  15 Ti     7.965166    1.901722   10.375271    ( 0.0000,  0.0000,  0.0000)
  16 Ti     0.502746    1.933115   11.181998    ( 0.0000,  0.0000,  0.0000)
  17 Ti     5.652399   -0.008202   11.130248    ( 0.0000,  0.0000,  0.0000)
  18 O      0.912093    0.008193   11.075447    ( 0.0000,  0.0000,  0.0000)
  19 O      6.086240    1.911912   11.090492    ( 0.0000,  0.0000,  0.0000)
  20 O      9.041974    1.907632   11.955800    ( 0.0000,  0.0000,  0.0000)
  21 O      3.869705   11.465767   11.942374    ( 0.0000,  0.0000,  0.0000)
  22 O      7.566893    0.005339   10.446987    ( 0.0000,  0.0000,  0.0000)
  23 O      2.390471    1.922655   10.447862    ( 0.0000,  0.0000,  0.0000)
  24 O      0.959795    1.878131   13.115215    ( 0.0000,  0.0000,  0.0000)
  25 O      6.129833   11.456188   13.071778    ( 0.0000,  0.0000,  0.0000)
  26 Ti     4.222946    0.067182   14.015101    ( 0.0000,  0.0000,  0.0000)
  27 Ti     9.431045    1.822701   14.012113    ( 0.0000,  0.0000,  0.0000)
  28 Ti     1.894566    1.917971   14.707785    ( 0.0000,  0.0000,  0.0000)
  29 Ti     7.017389   11.439530   14.605834    ( 0.0000,  0.0000,  0.0000)
  30 O      2.396363   11.436979   14.782181    ( 0.0000,  0.0000,  0.0000)
  31 O      7.574232    1.835390   14.775339    ( 0.0000,  0.0000,  0.0000)
  32 O      0.210715    1.884634   15.465204    ( 0.0000,  0.0000,  0.0000)
  33 O      5.407001    0.016456   15.453623    ( 0.0000,  0.0000,  0.0000)
  34 O      9.045673   11.425759   13.958628    ( 0.0000,  0.0000,  0.0000)
  35 O      3.848084    1.899559   13.967194    ( 0.0000,  0.0000,  0.0000)
  36 O      8.476572    5.733518    6.000000    ( 0.0000,  0.0000,  0.0000)
  37 O      3.305699    3.822345    6.000000    ( 0.0000,  0.0000,  0.0000)
  38 Ti     1.412752    3.822345    6.752957    ( 0.0000,  0.0000,  0.0000)
  39 Ti     6.583625    5.733518    6.752957    ( 0.0000,  0.0000,  0.0000)
  40 Ti     9.522250    5.733518    7.640878    ( 0.0000,  0.0000,  0.0000)
  41 Ti     4.351376    3.822345    7.640878    ( 0.0000,  0.0000,  0.0000)
  42 O      9.861551    3.822345    7.505914    ( 0.0000,  0.0000,  0.0000)
  43 O      4.690678    5.733518    7.505914    ( 0.0000,  0.0000,  0.0000)
  44 O      7.629303    5.733518    8.393834    ( 0.0000,  0.0000,  0.0000)
  45 O      2.458430    3.822345    8.393834    ( 0.0000,  0.0000,  0.0000)
  46 O      6.244323    3.822345    6.887921    ( 0.0000,  0.0000,  0.0000)
  47 O      1.073450    5.733518    6.887921    ( 0.0000,  0.0000,  0.0000)
  48 O      9.801900    5.738130    9.599161    ( 0.0000,  0.0000,  0.0000)
  49 O      4.639672    3.821685    9.608823    ( 0.0000,  0.0000,  0.0000)
  50 Ti     2.788564    3.829733   10.314198    ( 0.0000,  0.0000,  0.0000)
  51 Ti     8.024356    5.717847   10.355653    ( 0.0000,  0.0000,  0.0000)
  52 Ti     0.535182    5.709761   11.275500    ( 0.0000,  0.0000,  0.0000)
  53 Ti     5.734499    3.806802   11.215490    ( 0.0000,  0.0000,  0.0000)
  54 O      0.905196    3.822207   11.093509    ( 0.0000,  0.0000,  0.0000)
  55 O      6.064944    5.722492   11.099781    ( 0.0000,  0.0000,  0.0000)
  56 O      9.027306    5.710144   11.959487    ( 0.0000,  0.0000,  0.0000)
  57 O      3.857061    3.813085   11.946451    ( 0.0000,  0.0000,  0.0000)
  58 O      7.556661    3.820307   10.457106    ( 0.0000,  0.0000,  0.0000)
  59 O      2.385167    5.726908   10.451644    ( 0.0000,  0.0000,  0.0000)
  60 O      0.904557    5.778586   13.131629    ( 0.0000,  0.0000,  0.0000)
  61 O      6.065781    3.812262   13.211603    ( 0.0000,  0.0000,  0.0000)
  62 Ti     4.168425    3.906785   13.809376    ( 0.0000,  0.0000,  0.0000)
  63 Ti     9.475705    5.752948   13.992578    ( 0.0000,  0.0000,  0.0000)
  64 Ti     1.943714    5.710721   14.940801    ( 0.0000,  0.0000,  0.0000)
  65 Ti     7.247612    3.798746   14.777942    ( 0.0000,  0.0000,  0.0000)
  66 O      2.338791    3.834903   14.630478    ( 0.0000,  0.0000,  0.0000)
  67 O      7.542299    5.763664   14.791096    ( 0.0000,  0.0000,  0.0000)
  68 O      0.203981    5.703090   15.489232    ( 0.0000,  0.0000,  0.0000)
  69 O      5.185869    3.842240   15.558774    ( 0.0000,  0.0000,  0.0000)
  70 O      8.980210    3.810732   13.997218    ( 0.0000,  0.0000,  0.0000)
  71 O      3.871086    5.736401   13.928649    ( 0.0000,  0.0000,  0.0000)
  72 O      8.476572    9.555862    6.000000    ( 0.0000,  0.0000,  0.0000)
  73 O      3.305699    7.644690    6.000000    ( 0.0000,  0.0000,  0.0000)
  74 Ti     1.412752    7.644690    6.752957    ( 0.0000,  0.0000,  0.0000)
  75 Ti     6.583625    9.555862    6.752957    ( 0.0000,  0.0000,  0.0000)
  76 Ti     9.522250    9.555862    7.640878    ( 0.0000,  0.0000,  0.0000)
  77 Ti     4.351376    7.644690    7.640878    ( 0.0000,  0.0000,  0.0000)
  78 O      9.861551    7.644690    7.505914    ( 0.0000,  0.0000,  0.0000)
  79 O      4.690678    9.555862    7.505914    ( 0.0000,  0.0000,  0.0000)
  80 O      7.629303    9.555862    8.393834    ( 0.0000,  0.0000,  0.0000)
  81 O      2.458430    7.644690    8.393834    ( 0.0000,  0.0000,  0.0000)
  82 O      6.244323    7.644690    6.887921    ( 0.0000,  0.0000,  0.0000)
  83 O      1.073450    9.555862    6.887921    ( 0.0000,  0.0000,  0.0000)
  84 O      9.808716    9.566029    9.578367    ( 0.0000,  0.0000,  0.0000)
  85 O      4.640843    7.638349    9.582773    ( 0.0000,  0.0000,  0.0000)
  86 Ti     2.708771    7.651463   10.329481    ( 0.0000,  0.0000,  0.0000)
  87 Ti     7.924277    9.583229   10.397026    ( 0.0000,  0.0000,  0.0000)
  88 Ti     0.486945    9.568243   11.115598    ( 0.0000,  0.0000,  0.0000)
  89 Ti     5.725740    7.585831   11.078849    ( 0.0000,  0.0000,  0.0000)
  90 O      0.913542    7.651564   11.076387    ( 0.0000,  0.0000,  0.0000)
  91 O      6.087902    9.556910   11.077531    ( 0.0000,  0.0000,  0.0000)
  92 O      9.024892    9.536213   11.941637    ( 0.0000,  0.0000,  0.0000)
  93 O      3.845215    7.651090   11.933802    ( 0.0000,  0.0000,  0.0000)
  94 O      7.551457    7.627159   10.446508    ( 0.0000,  0.0000,  0.0000)
  95 O      2.381525    9.556980   10.444622    ( 0.0000,  0.0000,  0.0000)
  96 O      0.904968    9.599226   13.065778    ( 0.0000,  0.0000,  0.0000)
  97 O      6.082530    7.669963   13.106801    ( 0.0000,  0.0000,  0.0000)
  98 Ti     4.097853    7.703252   13.780885    ( 0.0000,  0.0000,  0.0000)
  99 Ti     9.396411    9.539853   14.026605    ( 0.0000,  0.0000,  0.0000)
 100 Ti     1.852509    9.583948   14.571189    ( 0.0000,  0.0000,  0.0000)
 101 Ti     7.047202    7.602222   14.590999    ( 0.0000,  0.0000,  0.0000)
 102 O      2.363074    7.699428   14.597047    ( 0.0000,  0.0000,  0.0000)
 103 O      7.552286    9.521710   14.821608    ( 0.0000,  0.0000,  0.0000)
 104 O      0.238339    9.511766   15.446822    ( 0.0000,  0.0000,  0.0000)
 105 O      5.370264    7.461269   15.606299    ( 0.0000,  0.0000,  0.0000)
 106 O      8.976519    7.629671   13.963278    ( 0.0000,  0.0000,  0.0000)
 107 O      3.889744    9.554981   13.958337    ( 0.0000,  0.0000,  0.0000)
 108 V      4.411705    6.729406   17.026563    ( 0.0000,  0.0000,  0.0000)
 109 V      5.789881    3.878284   17.199277    ( 0.0000,  0.0000,  0.0000)
 110 O      5.142998    2.646185   18.047778    ( 0.0000,  0.0000,  0.0000)
 111 O      2.902541    5.948166   16.544766    ( 0.0000,  0.0000,  0.0000)
 112 O      5.408287    5.521379   17.865078    ( 0.0000,  0.0000,  0.0000)
 113 O      2.649121    1.923507   16.782970    ( 0.0000,  0.0000,  0.0000)
 114 O      4.082982    7.899074   18.056509    ( 0.0000,  0.0000,  0.0000)
 115 O      7.464276    3.741090   16.725312    ( 0.0000,  0.0000,  0.0000)
 116 H      1.985031    2.161528   17.469118    ( 0.0000,  0.0000,  0.0000)
 117 H      3.552137    2.117386   17.182551    ( 0.0000,  0.0000,  0.0000)

Unit cell:
           periodic     x           y           z      points  spacing
  1. axis:    yes   10.341746    0.000000    0.000000    54     0.1915
  2. axis:    yes   -0.000000   11.467000    0.000000    60     0.1911
  3. axis:    no     0.000000    0.000000   23.497201   125     0.1880

  Lengths:  10.341746  11.467000  23.497201
  Angles:   90.000000  90.000000  90.000000

Effective grid spacing dv^(1/3) = 0.1902

                     log10-error:    total        iterations:
           time      wfs    density  energy       fermi  poisson
iter:   1  21:09:55  -0.12   +inf  -1107.620169    1             
iter:   2  21:10:52  -1.04  -0.96  -1060.428520    2             
iter:   3  21:11:48  +0.44  -1.01  -965.939245    5             
iter:   4  21:12:44  -0.97  -1.35  -978.307141    4             
iter:   5  21:13:40  -1.13  -1.28  -995.387665    3             
iter:   6  21:14:36  -0.11  -1.25  -987.250050    5             
iter:   7  21:15:32  -0.71  -1.64  -984.760980    4             
iter:   8  21:16:28  -1.97  -1.63  -979.684660    3             
iter:   9  21:17:23  -0.89  -1.70  -970.620490    4             
iter:  10  21:18:19  -1.63  -2.08  -971.188298    2             
iter:  11  21:19:15  -2.56  -2.19  -971.616198    2             
iter:  12  21:20:11  -1.50  -2.23  -971.565468    2             
iter:  13  21:21:07  -2.09  -2.28  -970.947659    3             
iter:  14  21:22:03  -2.23  -2.44  -971.058674    3             
iter:  15  21:22:59  -2.89  -2.51  -970.872898    3             
iter:  16  21:23:55  -3.05  -2.66  -970.872517    2             
iter:  17  21:24:51  -3.45  -2.69  -970.868103    3             
iter:  18  21:25:47  -3.20  -2.76  -970.867793    2             
iter:  19  21:26:43  -3.92  -2.80  -970.868329    2             
iter:  20  21:27:39  -3.46  -2.83  -970.865727    2             
iter:  21  21:28:35  -3.67  -2.92  -970.867674    1             
iter:  22  21:29:31  -4.54  -3.16  -970.863182    1             
iter:  23  21:30:27  -4.09  -3.30  -970.864729    2             
iter:  24  21:31:23  -4.79  -3.44  -970.863210    1             
iter:  25  21:32:19  -4.83  -3.74  -970.862803    2             
iter:  26  21:33:15  -5.56  -4.06  -970.862804    2             
iter:  27  21:34:11  -6.57  -4.18  -970.862783    2             
iter:  28  21:35:07  -6.17  -4.20  -970.862782    2             
iter:  29  21:36:03  -6.65  -4.36  -970.862774    2             
iter:  30  21:36:59  -7.50  -4.49  -970.862773    1             

Converged after 30 iterations.

Dipole moment: (-16.955683, 1.665629, -0.938326) |e|*Ang

Energy contributions relative to reference atoms: (reference = -1046916.965077)

Kinetic:       +702.483445
Potential:     -893.180500
External:        +0.000000
XC:            -787.887851
Entropy (-ST):   -0.000518
Local:           +7.722392
--------------------------
Free energy:   -970.863031
Extrapolated:  -970.862773

Fermi level: -0.61806

Showing only first 2 kpts
 Kpt  Band  Eigenvalues  Occupancy
  0   462     -1.68127    0.22222
  0   463     -1.67760    0.22222
  0   464      0.22826    0.00005
  0   465      0.38654    0.00001

  1   462     -1.69984    0.44444
  1   463     -1.66546    0.44443
  1   464      0.41762    0.00001
  1   465      0.52572    0.00000



Forces in eV/Ang:
  0 O    -1.89317    0.00722    1.54615
  1 O    -1.92563    0.00062    1.53789
  2 Ti    3.83715    0.00625    1.97160
  3 Ti    3.84124   -0.02994    1.96203
  4 Ti   -1.90185   -0.03053   -1.84507
  5 Ti   -1.87128    0.00317   -2.02187
  6 O     0.90842    0.02118   -0.20725
  7 O     0.85201    0.06328   -0.19911
  8 O    -0.63998    0.00691   -0.60964
  9 O    -0.65739    0.00635   -0.60225
 10 O    -0.28504    0.01739   -0.86599
 11 O    -0.22807    0.10633   -0.91196
 12 O    -0.13817    0.00045    0.01572
 13 O    -0.18582    0.00078   -0.01361
 14 Ti    0.03040   -0.02014   -0.10176
 15 Ti   -0.02372    0.01699   -0.07079
 16 Ti    0.08164   -0.03758    0.03238
 17 Ti    0.10556    0.00950    0.06602
 18 O     0.13010    0.00562   -0.08409
 19 O     0.17898   -0.05156   -0.06367
 20 O     0.02734    0.00110    0.16102
 21 O     0.00501    0.00456    0.11639
 22 O     0.01780    0.00565    0.06410
 23 O     0.01758    0.00750    0.03441
 24 O    -0.21196   -0.02751    0.01262
 25 O    -0.18364   -0.01704    0.01098
 26 Ti   -0.00770   -0.11998   -0.18091
 27 Ti   -0.03101    0.10552   -0.16452
 28 Ti    0.22526   -0.04022    0.06794
 29 Ti    0.18133   -0.03596   -0.02346
 30 O     0.05634    0.04284   -0.05224
 31 O     0.09363    0.04816   -0.08615
 32 O    -0.03556   -0.00864    0.16017
 33 O     0.02021    0.00142    0.09601
 34 O    -0.18694   -0.03748    0.20038
 35 O    -0.21164    0.08572    0.19755
 36 O    -1.91129    0.00166    1.51709
 37 O    -1.95249    0.00632    1.58621
 38 Ti    3.60605   -0.05512    1.73619
 39 Ti    3.90598   -0.00395    1.96198
 40 Ti   -1.88240    0.00240   -1.62889
 41 Ti   -1.48081   -0.03479   -1.69959
 42 O     0.96371    0.00390   -0.22832
 43 O     0.81932   -0.00431   -0.19461
 44 O    -0.75401   -0.02887   -0.78189
 45 O    -0.69404    0.01094   -0.73039
 46 O    -0.33222    0.00658   -0.87473
 47 O    -0.18984    0.00347   -0.90964
 48 O    -0.00661   -0.00412    0.06761
 49 O    -0.08787   -0.00123    0.03643
 50 Ti   -0.04073   -0.00314    0.01383
 51 Ti   -0.15446    0.01842   -0.05111
 52 Ti    0.01994    0.04732   -0.10483
 53 Ti   -0.02155    0.00126    0.05930
 54 O     0.20076   -0.00747   -0.06947
 55 O     0.20133   -0.03488   -0.04987
 56 O     0.00374   -0.01475    0.19882
 57 O     0.00233   -0.02652   -0.04583
 58 O     0.05011   -0.00645    0.07885
 59 O     0.02156    0.02842    0.13283
 60 O     0.10625    0.02117    0.16785
 61 O    -0.01266   -0.01472   -0.18713
 62 Ti    0.01333   -0.14734    0.09114
 63 Ti   -0.14901   -0.05632   -0.11619
 64 Ti    0.07869    0.05671   -0.19774
 65 Ti   -0.10592   -0.01768    0.01926
 66 O    -0.04097   -0.01218    0.25283
 67 O     0.07704   -0.10286   -0.00094
 68 O    -0.05962    0.01236    0.22404
 69 O     0.14363    0.04337    0.01210
 70 O    -0.06590   -0.02183    0.23801
 71 O    -0.17330    0.09683    0.01335
 72 O    -1.89624   -0.00231    1.54276
 73 O    -1.97829   -0.00720    1.59478
 74 Ti    3.56780    0.05378    1.70380
 75 Ti    3.88528    0.02764    1.99339
 76 Ti   -2.00645    0.02896   -2.03619
 77 Ti   -1.53314    0.02693   -2.03669
 78 O     0.97478    0.00462   -0.22159
 79 O     0.84071   -0.06232   -0.17750
 80 O    -0.65691   -0.02088   -0.61053
 81 O    -0.68906   -0.00722   -0.61445
 82 O    -0.33842   -0.02411   -0.87986
 83 O    -0.21741   -0.11099   -0.85994
 84 O    -0.18771   -0.00148   -0.00806
 85 O    -0.19225   -0.00711    0.00226
 86 Ti    0.09983   -0.01262   -0.02066
 87 Ti    0.04297   -0.07895   -0.12972
 88 Ti    0.06140   -0.00344    0.09410
 89 Ti   -0.05163    0.10634    0.19940
 90 O     0.09685   -0.03248   -0.08583
 91 O     0.12225   -0.04893   -0.08404
 92 O     0.01336   -0.00821    0.10888
 93 O     0.00533   -0.00274   -0.13441
 94 O     0.07774    0.02160    0.03637
 95 O     0.02952    0.01947    0.03068
 96 O    -0.00985    0.01315   -0.01753
 97 O    -0.05360    0.00447    0.06980
 98 Ti    0.17048   -0.10436    0.02492
 99 Ti   -0.03680   -0.03542   -0.16601
100 Ti    0.17364   -0.00827   -0.02431
101 Ti    0.07747    0.05326    0.01680
102 O    -0.10317   -0.12691    0.27809
103 O    -0.00263    0.00450    0.18078
104 O     0.02379   -0.00195    0.07833
105 O    -0.09737    0.11494   -0.26289
106 O    -0.19086    0.03853    0.17793
107 O    -0.09300    0.10236    0.20198
108 V    -0.07533    0.12547    0.15897
109 V    -0.01913   -0.14029    0.03231
110 O     0.11642    0.25065   -0.13609
111 O     0.14198    0.03989    0.12840
112 O    -0.01082   -0.01808    0.11542
113 O     0.12457    0.21612    0.57367
114 O    -0.00554   -0.09396   -0.12356
115 O    -0.26603   -0.08191   -0.04530
116 H     0.28875   -0.11464   -0.31482
117 H    -0.34349   -0.09946   -0.16144

System changes: positions 

Initializing position-dependent things.

Density initialized from wave functions
                                                
                                                
                                                
                                                
                                                
                                                
                      O                         
                                                
              O     O V O       Ti              
                  Oi O   O      O    O          
                       OV   OO      Ti          
           O H TiHO     O    Ti   O             
               O      Oi   O O                  
         O     O    O      Ti     Ti            
             Tii   OOi     OO   O               
              O   O     O Ti   TiOi             
          O Ti   TiO      O    O     O          
            O   O      OTi    TiO               
                TiO      O  O  O   O Ti         
         Ti   O O    O Oi    Ti     O           
         O     Ti    Ti    OTi  O Ti            
             OTi    O O   O                     
                  O Ti     Oi     O             
             Oi     O    O      Ti              
           O     OTi    Ti     O                
          Ti          O      O                  
               O                                
                                                
                                                
                                                
                                                

Positions:
   0 O      8.476572    1.911173    6.000000    ( 0.0000,  0.0000,  0.0000)
   1 O      3.305699    0.000000    6.000000    ( 0.0000,  0.0000,  0.0000)
   2 Ti     1.412752    0.000000    6.752957    ( 0.0000,  0.0000,  0.0000)
   3 Ti     6.583625    1.911173    6.752957    ( 0.0000,  0.0000,  0.0000)
   4 Ti     9.522250    1.911173    7.640878    ( 0.0000,  0.0000,  0.0000)
   5 Ti     4.351376    0.000000    7.640878    ( 0.0000,  0.0000,  0.0000)
   6 O      9.861551    0.000000    7.505914    ( 0.0000,  0.0000,  0.0000)
   7 O      4.690678    1.911173    7.505914    ( 0.0000,  0.0000,  0.0000)
   8 O      7.629303    1.911173    8.393834    ( 0.0000,  0.0000,  0.0000)
   9 O      2.458430    0.000000    8.393834    ( 0.0000,  0.0000,  0.0000)
  10 O      6.244323    0.000000    6.887921    ( 0.0000,  0.0000,  0.0000)
  11 O      1.073450    1.911173    6.887921    ( 0.0000,  0.0000,  0.0000)
  12 O      9.809538    1.918698    9.593373    ( 0.0000,  0.0000,  0.0000)
  13 O      4.638060    0.005801    9.579680    ( 0.0000,  0.0000,  0.0000)
  14 Ti     2.756895    0.021175   10.383871    ( 0.0000,  0.0000,  0.0000)
  15 Ti     7.964827    1.901965   10.374260    ( 0.0000,  0.0000,  0.0000)
  16 Ti     0.503913    1.932578   11.182460    ( 0.0000,  0.0000,  0.0000)
  17 Ti     5.653907   -0.008067   11.131191    ( 0.0000,  0.0000,  0.0000)
  18 O      0.913951    0.008273   11.074245    ( 0.0000,  0.0000,  0.0000)
  19 O      6.088797    1.911175   11.089583    ( 0.0000,  0.0000,  0.0000)
  20 O      9.042365    1.907648   11.958100    ( 0.0000,  0.0000,  0.0000)
  21 O      3.869776   11.465832   11.944037    ( 0.0000,  0.0000,  0.0000)
  22 O      7.567147    0.005420   10.447902    ( 0.0000,  0.0000,  0.0000)
  23 O      2.390722    1.922763   10.448353    ( 0.0000,  0.0000,  0.0000)
  24 O      0.956767    1.877738   13.115396    ( 0.0000,  0.0000,  0.0000)
  25 O      6.127210   11.455944   13.071935    ( 0.0000,  0.0000,  0.0000)
  26 Ti     4.222836    0.065467   14.012517    ( 0.0000,  0.0000,  0.0000)
  27 Ti     9.430602    1.824209   14.009763    ( 0.0000,  0.0000,  0.0000)
  28 Ti     1.897784    1.917396   14.708756    ( 0.0000,  0.0000,  0.0000)
  29 Ti     7.019979   11.439016   14.605499    ( 0.0000,  0.0000,  0.0000)
  30 O      2.397168   11.437591   14.781435    ( 0.0000,  0.0000,  0.0000)
  31 O      7.575570    1.836078   14.774108    ( 0.0000,  0.0000,  0.0000)
  32 O      0.210208    1.884511   15.467492    ( 0.0000,  0.0000,  0.0000)
  33 O      5.407289    0.016476   15.454994    ( 0.0000,  0.0000,  0.0000)
  34 O      9.043002   11.425224   13.961491    ( 0.0000,  0.0000,  0.0000)
  35 O      3.845060    1.900783   13.970016    ( 0.0000,  0.0000,  0.0000)
  36 O      8.476572    5.733518    6.000000    ( 0.0000,  0.0000,  0.0000)
  37 O      3.305699    3.822345    6.000000    ( 0.0000,  0.0000,  0.0000)
  38 Ti     1.412752    3.822345    6.752957    ( 0.0000,  0.0000,  0.0000)
  39 Ti     6.583625    5.733518    6.752957    ( 0.0000,  0.0000,  0.0000)
  40 Ti     9.522250    5.733518    7.640878    ( 0.0000,  0.0000,  0.0000)
  41 Ti     4.351376    3.822345    7.640878    ( 0.0000,  0.0000,  0.0000)
  42 O      9.861551    3.822345    7.505914    ( 0.0000,  0.0000,  0.0000)
  43 O      4.690678    5.733518    7.505914    ( 0.0000,  0.0000,  0.0000)
  44 O      7.629303    5.733518    8.393834    ( 0.0000,  0.0000,  0.0000)
  45 O      2.458430    3.822345    8.393834    ( 0.0000,  0.0000,  0.0000)
  46 O      6.244323    3.822345    6.887921    ( 0.0000,  0.0000,  0.0000)
  47 O      1.073450    5.733518    6.887921    ( 0.0000,  0.0000,  0.0000)
  48 O      9.801805    5.738071    9.600126    ( 0.0000,  0.0000,  0.0000)
  49 O      4.638417    3.821668    9.609344    ( 0.0000,  0.0000,  0.0000)
  50 Ti     2.787982    3.829688   10.314395    ( 0.0000,  0.0000,  0.0000)
  51 Ti     8.022150    5.718110   10.354923    ( 0.0000,  0.0000,  0.0000)
  52 Ti     0.535466    5.710437   11.274003    ( 0.0000,  0.0000,  0.0000)
  53 Ti     5.734191    3.806820   11.216337    ( 0.0000,  0.0000,  0.0000)
  54 O      0.908064    3.822100   11.092517    ( 0.0000,  0.0000,  0.0000)
  55 O      6.067820    5.721994   11.099069    ( 0.0000,  0.0000,  0.0000)
  56 O      9.027359    5.709933   11.962328    ( 0.0000,  0.0000,  0.0000)
  57 O      3.857094    3.812706   11.945796    ( 0.0000,  0.0000,  0.0000)
  58 O      7.557377    3.820215   10.458233    ( 0.0000,  0.0000,  0.0000)
  59 O      2.385475    5.727314   10.453541    ( 0.0000,  0.0000,  0.0000)
  60 O      0.906074    5.778889   13.134026    ( 0.0000,  0.0000,  0.0000)
  61 O      6.065600    3.812052   13.208930    ( 0.0000,  0.0000,  0.0000)
  62 Ti     4.168615    3.904680   13.810678    ( 0.0000,  0.0000,  0.0000)
  63 Ti     9.473576    5.752144   13.990918    ( 0.0000,  0.0000,  0.0000)
  64 Ti     1.944838    5.711531   14.937976    ( 0.0000,  0.0000,  0.0000)
  65 Ti     7.246099    3.798494   14.778217    ( 0.0000,  0.0000,  0.0000)
  66 O      2.338206    3.834729   14.634089    ( 0.0000,  0.0000,  0.0000)
  67 O      7.543400    5.762195   14.791082    ( 0.0000,  0.0000,  0.0000)
  68 O      0.203130    5.703267   15.492433    ( 0.0000,  0.0000,  0.0000)
  69 O      5.187921    3.842860   15.558946    ( 0.0000,  0.0000,  0.0000)
  70 O      8.979268    3.810420   14.000619    ( 0.0000,  0.0000,  0.0000)
  71 O      3.868611    5.737784   13.928840    ( 0.0000,  0.0000,  0.0000)
  72 O      8.476572    9.555862    6.000000    ( 0.0000,  0.0000,  0.0000)
  73 O      3.305699    7.644690    6.000000    ( 0.0000,  0.0000,  0.0000)
  74 Ti     1.412752    7.644690    6.752957    ( 0.0000,  0.0000,  0.0000)
  75 Ti     6.583625    9.555862    6.752957    ( 0.0000,  0.0000,  0.0000)
  76 Ti     9.522250    9.555862    7.640878    ( 0.0000,  0.0000,  0.0000)
  77 Ti     4.351376    7.644690    7.640878    ( 0.0000,  0.0000,  0.0000)
  78 O      9.861551    7.644690    7.505914    ( 0.0000,  0.0000,  0.0000)
  79 O      4.690678    9.555862    7.505914    ( 0.0000,  0.0000,  0.0000)
  80 O      7.629303    9.555862    8.393834    ( 0.0000,  0.0000,  0.0000)
  81 O      2.458430    7.644690    8.393834    ( 0.0000,  0.0000,  0.0000)
  82 O      6.244323    7.644690    6.887921    ( 0.0000,  0.0000,  0.0000)
  83 O      1.073450    9.555862    6.887921    ( 0.0000,  0.0000,  0.0000)
  84 O      9.806034    9.566007    9.578252    ( 0.0000,  0.0000,  0.0000)
  85 O      4.638097    7.638248    9.582806    ( 0.0000,  0.0000,  0.0000)
  86 Ti     2.710198    7.651283   10.329186    ( 0.0000,  0.0000,  0.0000)
  87 Ti     7.924891    9.582101   10.395173    ( 0.0000,  0.0000,  0.0000)
  88 Ti     0.487822    9.568193   11.116942    ( 0.0000,  0.0000,  0.0000)
  89 Ti     5.725002    7.587350   11.081698    ( 0.0000,  0.0000,  0.0000)
  90 O      0.914926    7.651099   11.075161    ( 0.0000,  0.0000,  0.0000)
  91 O      6.089648    9.556211   11.076330    ( 0.0000,  0.0000,  0.0000)
  92 O      9.025083    9.536095   11.943193    ( 0.0000,  0.0000,  0.0000)
  93 O      3.845291    7.651050   11.931882    ( 0.0000,  0.0000,  0.0000)
  94 O      7.552567    7.627468   10.447028    ( 0.0000,  0.0000,  0.0000)
  95 O      2.381947    9.557258   10.445061    ( 0.0000,  0.0000,  0.0000)
  96 O      0.904828    9.599414   13.065528    ( 0.0000,  0.0000,  0.0000)
  97 O      6.081764    7.670027   13.107798    ( 0.0000,  0.0000,  0.0000)
  98 Ti     4.100288    7.701761   13.781241    ( 0.0000,  0.0000,  0.0000)
  99 Ti     9.395885    9.539347   14.024233    ( 0.0000,  0.0000,  0.0000)
 100 Ti     1.854990    9.583830   14.570841    ( 0.0000,  0.0000,  0.0000)
 101 Ti     7.048309    7.602983   14.591239    ( 0.0000,  0.0000,  0.0000)
 102 O      2.361600    7.697615   14.601020    ( 0.0000,  0.0000,  0.0000)
 103 O      7.552249    9.521774   14.824191    ( 0.0000,  0.0000,  0.0000)
 104 O      0.238679    9.511738   15.447941    ( 0.0000,  0.0000,  0.0000)
 105 O      5.368873    7.462911   15.602544    ( 0.0000,  0.0000,  0.0000)
 106 O      8.973793    7.630222   13.965820    ( 0.0000,  0.0000,  0.0000)
 107 O      3.888415    9.556443   13.961223    ( 0.0000,  0.0000,  0.0000)
 108 V      4.410628    6.731198   17.028833    ( 0.0000,  0.0000,  0.0000)
 109 V      5.789608    3.876280   17.199738    ( 0.0000,  0.0000,  0.0000)
 110 O      5.144661    2.649766   18.045834    ( 0.0000,  0.0000,  0.0000)
 111 O      2.904569    5.948736   16.546600    ( 0.0000,  0.0000,  0.0000)
 112 O      5.408133    5.521120   17.866727    ( 0.0000,  0.0000,  0.0000)
 113 O      2.650900    1.926594   16.791165    ( 0.0000,  0.0000,  0.0000)
 114 O      4.082903    7.897732   18.054744    ( 0.0000,  0.0000,  0.0000)
 115 O      7.460475    3.739920   16.724664    ( 0.0000,  0.0000,  0.0000)
 116 H      1.989156    2.159890   17.464621    ( 0.0000,  0.0000,  0.0000)
 117 H      3.547230    2.115965   17.180245    ( 0.0000,  0.0000,  0.0000)

Unit cell:
           periodic     x           y           z      points  spacing
  1. axis:    yes   10.341746    0.000000    0.000000    54     0.1915
  2. axis:    yes   -0.000000   11.467000    0.000000    60     0.1911
  3. axis:    no     0.000000    0.000000   23.497201   125     0.1880

  Lengths:  10.341746  11.467000  23.497201
  Angles:   90.000000  90.000000  90.000000

Effective grid spacing dv^(1/3) = 0.1902

                     log10-error:    total        iterations:
           time      wfs    density  energy       fermi  poisson
iter:   1  21:38:15  -3.30   +inf  -970.912888    3             
iter:   2  21:39:11  -4.25  -3.33  -970.909577    2             
iter:   3  21:40:07  -3.55  -3.36  -970.900555    3             
iter:   4  21:41:03  -4.91  -3.51  -970.899299    2             
iter:   5  21:41:59  -4.73  -3.62  -970.898654    2             
iter:   6  21:42:54  -4.62  -3.77  -970.898045    2             
iter:   7  21:43:50  -5.44  -3.84  -970.897659    2             
iter:   8  21:44:46  -5.56  -3.99  -970.897446    1             
iter:   9  21:45:42  -5.81  -4.24  -970.897448    2             
iter:  10  21:46:38  -6.30  -4.31  -970.897424    2             
iter:  11  21:47:34  -7.43  -4.55  -970.897418    1             

Converged after 11 iterations.

Dipole moment: (-17.027522, 1.799392, -0.960242) |e|*Ang

Energy contributions relative to reference atoms: (reference = -1046916.965077)

Kinetic:       +703.457439
Potential:     -894.014020
External:        +0.000000
XC:            -788.116004
Entropy (-ST):   -0.000514
Local:           +7.775424
--------------------------
Free energy:   -970.897675
Extrapolated:  -970.897418

Fermi level: -0.62545

Showing only first 2 kpts
 Kpt  Band  Eigenvalues  Occupancy
  0   462     -1.68993    0.22222
  0   463     -1.68633    0.22222
  0   464      0.22163    0.00005
  0   465      0.37824    0.00001

  1   462     -1.70769    0.44444
  1   463     -1.67436    0.44443
  1   464      0.41138    0.00001
  1   465      0.51792    0.00000



Forces in eV/Ang:
  0 O    -1.89494    0.00730    1.54407
  1 O    -1.92789    0.00050    1.53547
  2 Ti    3.83210    0.00637    1.96389
  3 Ti    3.83569   -0.03032    1.95522
  4 Ti   -1.89589   -0.03142   -1.83477
  5 Ti   -1.86620    0.00365   -2.01579
  6 O     0.90598    0.02096   -0.20861
  7 O     0.85139    0.06328   -0.20086
  8 O    -0.65042    0.00683   -0.61838
  9 O    -0.67037    0.00655   -0.61419
 10 O    -0.28208    0.01629   -0.86657
 11 O    -0.22684    0.10494   -0.91225
 12 O    -0.11670    0.00055    0.02232
 13 O    -0.15102   -0.00112    0.01809
 14 Ti    0.04236   -0.01709   -0.08594
 15 Ti    0.00253    0.01786   -0.04406
 16 Ti    0.06528   -0.03053    0.05154
 17 Ti    0.08682    0.01617    0.05391
 18 O     0.10424   -0.00307   -0.07745
 19 O     0.14779   -0.04939   -0.05628
 20 O     0.01771    0.00104    0.11633
 21 O     0.00872    0.00649    0.09424
 22 O     0.01790   -0.01018    0.06443
 23 O     0.02315   -0.00333    0.03971
 24 O    -0.16480   -0.02398    0.02840
 25 O    -0.16198   -0.02144    0.00889
 26 Ti    0.04378   -0.11237   -0.12099
 27 Ti    0.02312    0.10081   -0.08570
 28 Ti    0.09768   -0.03158    0.08965
 29 Ti    0.10918   -0.01751   -0.00269
 30 O     0.04800    0.04548   -0.04216
 31 O     0.05743    0.03449   -0.08513
 32 O     0.00250   -0.01217    0.07894
 33 O     0.03549    0.00543    0.02814
 34 O    -0.18153   -0.04697    0.18431
 35 O    -0.18704    0.09418    0.18141
 36 O    -1.91071    0.00168    1.51826
 37 O    -1.95235    0.00623    1.58374
 38 Ti    3.60639   -0.05504    1.73382
 39 Ti    3.89384   -0.00460    1.95153
 40 Ti   -1.87321    0.00206   -1.62073
 41 Ti   -1.48339   -0.03559   -1.68497
 42 O     0.95910    0.00722   -0.22817
 43 O     0.82084   -0.00449   -0.19627
 44 O    -0.75277   -0.02850   -0.77534
 45 O    -0.70044    0.01276   -0.74212
 46 O    -0.32789    0.00920   -0.87714
 47 O    -0.19110    0.00351   -0.91112
 48 O    -0.00746   -0.00495    0.06096
 49 O    -0.06670   -0.00070    0.02154
 50 Ti   -0.03406   -0.00227    0.01556
 51 Ti   -0.12073    0.00874   -0.01605
 52 Ti    0.01301    0.04228   -0.04531
 53 Ti   -0.02112   -0.00159    0.05476
 54 O     0.17488   -0.00397   -0.05915
 55 O     0.18520   -0.00379   -0.04698
 56 O     0.00615   -0.01359    0.15193
 57 O     0.00780   -0.02613   -0.00893
 58 O     0.05494   -0.00414    0.07386
 59 O     0.02959    0.02891    0.12602
 60 O     0.08666    0.01835    0.10961
 61 O    -0.02916   -0.01527   -0.17492
 62 Ti    0.00530   -0.12526    0.09477
 63 Ti   -0.07353   -0.06454   -0.02402
 64 Ti   -0.01853    0.06391   -0.11120
 65 Ti   -0.10644   -0.01874    0.04559
 66 O    -0.01235   -0.02263    0.22657
 67 O     0.05147   -0.07788   -0.00400
 68 O    -0.03245    0.01596    0.12596
 69 O     0.09666    0.03833   -0.07750
 70 O    -0.04622   -0.01748    0.23460
 71 O    -0.15509    0.07221   -0.00660
 72 O    -1.89939   -0.00247    1.54056
 73 O    -1.97869   -0.00711    1.59160
 74 Ti    3.56899    0.05352    1.70173
 75 Ti    3.87794    0.02874    1.98391
 76 Ti   -1.99638    0.03030   -2.03035
 77 Ti   -1.53561    0.02726   -2.02990
 78 O     0.96972    0.00149   -0.22140
 79 O     0.84088   -0.06229   -0.17928
 80 O    -0.67034   -0.02088   -0.61999
 81 O    -0.70020   -0.00773   -0.63440
 82 O    -0.33386   -0.02554   -0.88102
 83 O    -0.21682   -0.10961   -0.86006
 84 O    -0.15675   -0.00155    0.01885
 85 O    -0.14307   -0.00926    0.02721
 86 Ti    0.08785   -0.01412   -0.03213
 87 Ti    0.06457   -0.06801   -0.11140
 88 Ti    0.05065   -0.00671    0.07998
 89 Ti   -0.04939    0.09046    0.15206
 90 O     0.07125   -0.01574   -0.07300
 91 O     0.09246   -0.05070   -0.07269
 92 O     0.01360   -0.00903    0.08752
 93 O     0.03085    0.00467   -0.08317
 94 O     0.06375    0.01668    0.04293
 95 O     0.02640    0.01761    0.03257
 96 O     0.00049    0.00920   -0.02584
 97 O    -0.06982    0.00975    0.01812
 98 Ti    0.11812   -0.10690    0.07273
 99 Ti    0.00933   -0.02011   -0.09880
100 Ti    0.08840   -0.02878    0.00831
101 Ti    0.06735    0.03513    0.06534
102 O    -0.04466   -0.07015    0.24163
103 O    -0.01107    0.00046    0.16606
104 O     0.04487    0.00319    0.00700
105 O    -0.10294    0.10227   -0.23906
106 O    -0.17686    0.03639    0.15927
107 O    -0.09210    0.05554    0.18144
108 V     0.02286   -0.08130   -0.01142
109 V    -0.00301    0.10564   -0.00472
110 O     0.05386    0.07013   -0.00359
111 O     0.12454    0.03644    0.10369
112 O    -0.01834   -0.01740    0.08338
113 O     0.11300   -0.01704   -0.02270
114 O    -0.05890    0.09462    0.04270
115 O    -0.15902   -0.10210   -0.04921
116 H    -0.05525    0.02167    0.07924
117 H    -0.01580   -0.02177    0.01522

System changes: positions 

Initializing position-dependent things.

Density initialized from wave functions
                                                
                                                
                                                
                                                
                                                
                                                
                      O                         
                                                
              O     O V O       Ti              
                  Oi O   O      O    O          
                       OV   OO      Ti          
           O H TiHO     O    Ti   O             
               O      Oi   O O                  
         O     O    O      Ti     Ti            
             Tii   OOi     OO   O               
              O   O     O Ti   TiOi             
          O Ti   TiO      O    O     O          
            O   O      OTi    TiO               
                TiO      O  O  O   O Ti         
         Ti   O O    O Oi    Ti     O           
         O     Ti    Ti    OTi  O Ti            
             OTi    O O   O                     
                  O Ti     Oi     O             
             Oi     O    O      Ti              
           O     OTi    Ti     O                
          Ti          O      O                  
               O                                
                                                
                                                
                                                
                                                

Positions:
   0 O      8.476572    1.911173    6.000000    ( 0.0000,  0.0000,  0.0000)
   1 O      3.305699    0.000000    6.000000    ( 0.0000,  0.0000,  0.0000)
   2 Ti     1.412752    0.000000    6.752957    ( 0.0000,  0.0000,  0.0000)
   3 Ti     6.583625    1.911173    6.752957    ( 0.0000,  0.0000,  0.0000)
   4 Ti     9.522250    1.911173    7.640878    ( 0.0000,  0.0000,  0.0000)
   5 Ti     4.351376    0.000000    7.640878    ( 0.0000,  0.0000,  0.0000)
   6 O      9.861551    0.000000    7.505914    ( 0.0000,  0.0000,  0.0000)
   7 O      4.690678    1.911173    7.505914    ( 0.0000,  0.0000,  0.0000)
   8 O      7.629303    1.911173    8.393834    ( 0.0000,  0.0000,  0.0000)
   9 O      2.458430    0.000000    8.393834    ( 0.0000,  0.0000,  0.0000)
  10 O      6.244323    0.000000    6.887921    ( 0.0000,  0.0000,  0.0000)
  11 O      1.073450    1.911173    6.887921    ( 0.0000,  0.0000,  0.0000)
  12 O      9.804117    1.918721    9.594268    ( 0.0000,  0.0000,  0.0000)
  13 O      4.630952    0.005777    9.580055    ( 0.0000,  0.0000,  0.0000)
  14 Ti     2.758600    0.020383   10.379879    ( 0.0000,  0.0000,  0.0000)
  15 Ti     7.964589    1.902739   10.371966    ( 0.0000,  0.0000,  0.0000)
  16 Ti     0.507003    1.931141   11.184474    ( 0.0000,  0.0000,  0.0000)
  17 Ti     5.657977   -0.007444   11.133724    ( 0.0000,  0.0000,  0.0000)
  18 O      0.918882    0.008254   11.070749    ( 0.0000,  0.0000,  0.0000)
  19 O      6.095715    1.908973   11.087008    ( 0.0000,  0.0000,  0.0000)
  20 O      9.043272    1.907694   11.963813    ( 0.0000,  0.0000,  0.0000)
  21 O      3.870111   11.466092   11.948478    ( 0.0000,  0.0000,  0.0000)
  22 O      7.567934    0.005182   10.450734    ( 0.0000,  0.0000,  0.0000)
  23 O      2.391667    1.922760   10.450031    ( 0.0000,  0.0000,  0.0000)
  24 O      0.948888    1.876636   13.116436    ( 0.0000,  0.0000,  0.0000)
  25 O      6.119793   11.455059   13.072354    ( 0.0000,  0.0000,  0.0000)
  26 Ti     4.224079    0.060421   14.006396    ( 0.0000,  0.0000,  0.0000)
  27 Ti     9.430900    1.828708   14.004944    ( 0.0000,  0.0000,  0.0000)
  28 Ti     1.903778    1.915891   14.712413    ( 0.0000,  0.0000,  0.0000)
  29 Ti     7.025743   11.438001   14.605104    ( 0.0000,  0.0000,  0.0000)
  30 O      2.399391   11.439557   14.779446    ( 0.0000,  0.0000,  0.0000)
  31 O      7.578578    1.837778   14.770348    ( 0.0000,  0.0000,  0.0000)
  32 O      0.209812    1.884022   15.472046    ( 0.0000,  0.0000,  0.0000)
  33 O      5.408648    0.016662   15.457135    ( 0.0000,  0.0000,  0.0000)
  34 O      9.034942   11.423283   13.969815    ( 0.0000,  0.0000,  0.0000)
  35 O      3.836502    1.904816   13.978215    ( 0.0000,  0.0000,  0.0000)
  36 O      8.476572    5.733518    6.000000    ( 0.0000,  0.0000,  0.0000)
  37 O      3.305699    3.822345    6.000000    ( 0.0000,  0.0000,  0.0000)
  38 Ti     1.412752    3.822345    6.752957    ( 0.0000,  0.0000,  0.0000)
  39 Ti     6.583625    5.733518    6.752957    ( 0.0000,  0.0000,  0.0000)
  40 Ti     9.522250    5.733518    7.640878    ( 0.0000,  0.0000,  0.0000)
  41 Ti     4.351376    3.822345    7.640878    ( 0.0000,  0.0000,  0.0000)
  42 O      9.861551    3.822345    7.505914    ( 0.0000,  0.0000,  0.0000)
  43 O      4.690678    5.733518    7.505914    ( 0.0000,  0.0000,  0.0000)
  44 O      7.629303    5.733518    8.393834    ( 0.0000,  0.0000,  0.0000)
  45 O      2.458430    3.822345    8.393834    ( 0.0000,  0.0000,  0.0000)
  46 O      6.244323    3.822345    6.887921    ( 0.0000,  0.0000,  0.0000)
  47 O      1.073450    5.733518    6.887921    ( 0.0000,  0.0000,  0.0000)
  48 O      9.801488    5.737864    9.602898    ( 0.0000,  0.0000,  0.0000)
  49 O      4.635200    3.821630    9.610490    ( 0.0000,  0.0000,  0.0000)
  50 Ti     2.786394    3.829577   10.315057    ( 0.0000,  0.0000,  0.0000)
  51 Ti     8.016388    5.718623   10.353751    ( 0.0000,  0.0000,  0.0000)
  52 Ti     0.536131    5.712365   11.271218    ( 0.0000,  0.0000,  0.0000)
  53 Ti     5.733255    3.806788   11.218807    ( 0.0000,  0.0000,  0.0000)
  54 O      0.916104    3.821879   11.089777    ( 0.0000,  0.0000,  0.0000)
  55 O      6.076185    5.721414   11.096963    ( 0.0000,  0.0000,  0.0000)
  56 O      9.027598    5.709320   11.969637    ( 0.0000,  0.0000,  0.0000)
  57 O      3.857365    3.811551   11.944913    ( 0.0000,  0.0000,  0.0000)
  58 O      7.559730    3.820002   10.461550    ( 0.0000,  0.0000,  0.0000)
  59 O      2.386670    5.728580   10.459178    ( 0.0000,  0.0000,  0.0000)
  60 O      0.910148    5.779734   13.139624    ( 0.0000,  0.0000,  0.0000)
  61 O      6.064536    3.811387   13.201070    ( 0.0000,  0.0000,  0.0000)
  62 Ti     4.168955    3.898874   13.814801    ( 0.0000,  0.0000,  0.0000)
  63 Ti     9.469337    5.749413   13.988636    ( 0.0000,  0.0000,  0.0000)
  64 Ti     1.945315    5.714248   14.931933    ( 0.0000,  0.0000,  0.0000)
  65 Ti     7.241421    3.797683   14.779874    ( 0.0000,  0.0000,  0.0000)
  66 O      2.337282    3.833872   14.644409    ( 0.0000,  0.0000,  0.0000)
  67 O      7.546005    5.758435   14.790947    ( 0.0000,  0.0000,  0.0000)
  68 O      0.201341    5.703921   15.499279    ( 0.0000,  0.0000,  0.0000)
  69 O      5.192799    3.844614   15.556726    ( 0.0000,  0.0000,  0.0000)
  70 O      8.976972    3.809593   14.010989    ( 0.0000,  0.0000,  0.0000)
  71 O      3.861543    5.741289   13.928814    ( 0.0000,  0.0000,  0.0000)
  72 O      8.476572    9.555862    6.000000    ( 0.0000,  0.0000,  0.0000)
  73 O      3.305699    7.644690    6.000000    ( 0.0000,  0.0000,  0.0000)
  74 Ti     1.412752    7.644690    6.752957    ( 0.0000,  0.0000,  0.0000)
  75 Ti     6.583625    9.555862    6.752957    ( 0.0000,  0.0000,  0.0000)
  76 Ti     9.522250    9.555862    7.640878    ( 0.0000,  0.0000,  0.0000)
  77 Ti     4.351376    7.644690    7.640878    ( 0.0000,  0.0000,  0.0000)
  78 O      9.861551    7.644690    7.505914    ( 0.0000,  0.0000,  0.0000)
  79 O      4.690678    9.555862    7.505914    ( 0.0000,  0.0000,  0.0000)
  80 O      7.629303    9.555862    8.393834    ( 0.0000,  0.0000,  0.0000)
  81 O      2.458430    7.644690    8.393834    ( 0.0000,  0.0000,  0.0000)
  82 O      6.244323    7.644690    6.887921    ( 0.0000,  0.0000,  0.0000)
  83 O      1.073450    9.555862    6.887921    ( 0.0000,  0.0000,  0.0000)
  84 O      9.798725    9.565940    9.578724    ( 0.0000,  0.0000,  0.0000)
  85 O      4.631147    7.637869    9.583672    ( 0.0000,  0.0000,  0.0000)
  86 Ti     2.714223    7.650681   10.327924    ( 0.0000,  0.0000,  0.0000)
  87 Ti     7.927445    9.578962   10.390027    ( 0.0000,  0.0000,  0.0000)
  88 Ti     0.490194    9.567942   11.120649    ( 0.0000,  0.0000,  0.0000)
  89 Ti     5.722799    7.591543   11.089019    ( 0.0000,  0.0000,  0.0000)
  90 O      0.918402    7.650184   11.071778    ( 0.0000,  0.0000,  0.0000)
  91 O      6.094113    9.554004   11.072980    ( 0.0000,  0.0000,  0.0000)
  92 O      9.025678    9.535709   11.947328    ( 0.0000,  0.0000,  0.0000)
  93 O      3.846309    7.651157   11.927540    ( 0.0000,  0.0000,  0.0000)
  94 O      7.555559    7.628267   10.448830    ( 0.0000,  0.0000,  0.0000)
  95 O      2.383150    9.558058   10.446469    ( 0.0000,  0.0000,  0.0000)
  96 O      0.904712    9.599872   13.064501    ( 0.0000,  0.0000,  0.0000)
  97 O      6.078907    7.670386   13.109282    ( 0.0000,  0.0000,  0.0000)
  98 Ti     4.106182    7.697090   13.783807    ( 0.0000,  0.0000,  0.0000)
  99 Ti     9.395683    9.538258   14.018992    ( 0.0000,  0.0000,  0.0000)
 100 Ti     1.860013    9.582836   14.570774    ( 0.0000,  0.0000,  0.0000)
 101 Ti     7.051407    7.604770   14.593469    ( 0.0000,  0.0000,  0.0000)
 102 O      2.358857    7.693773   14.612138    ( 0.0000,  0.0000,  0.0000)
 103 O      7.551874    9.521848   14.831695    ( 0.0000,  0.0000,  0.0000)
 104 O      0.240373    9.511810   15.449196    ( 0.0000,  0.0000,  0.0000)
 105 O      5.364417    7.467580   15.591706    ( 0.0000,  0.0000,  0.0000)
 106 O      8.965823    7.631852   13.973077    ( 0.0000,  0.0000,  0.0000)
 107 O      3.884350    9.559509   13.969481    ( 0.0000,  0.0000,  0.0000)
 108 V      4.410330    6.730368   17.030595    ( 0.0000,  0.0000,  0.0000)
 109 V      5.789261    3.877661   17.200022    ( 0.0000,  0.0000,  0.0000)
 110 O      5.147863    2.655251   18.043915    ( 0.0000,  0.0000,  0.0000)
 111 O      2.910282    5.950386   16.551492    ( 0.0000,  0.0000,  0.0000)
 112 O      5.407426    5.520346   17.870822    ( 0.0000,  0.0000,  0.0000)
 113 O      2.656027    1.928942   16.798090    ( 0.0000,  0.0000,  0.0000)
 114 O      4.081020    7.899390   18.054414    ( 0.0000,  0.0000,  0.0000)
 115 O      7.452055    3.735695   16.722551    ( 0.0000,  0.0000,  0.0000)
 116 H      1.991295    2.159033   17.462872    ( 0.0000,  0.0000,  0.0000)
 117 H      3.542180    2.113975   17.178568    ( 0.0000,  0.0000,  0.0000)

Unit cell:
           periodic     x           y           z      points  spacing
  1. axis:    yes   10.341746    0.000000    0.000000    54     0.1915
  2. axis:    yes   -0.000000   11.467000    0.000000    60     0.1911
  3. axis:    no     0.000000    0.000000   23.497201   125     0.1880

  Lengths:  10.341746  11.467000  23.497201
  Angles:   90.000000  90.000000  90.000000

Effective grid spacing dv^(1/3) = 0.1902

                     log10-error:    total        iterations:
           time      wfs    density  energy       fermi  poisson
iter:   1  21:48:50  -2.73   +inf  -970.964917    3             
iter:   2  21:49:46  -3.65  -3.09  -970.962214    2             
iter:   3  21:50:42  -3.50  -3.11  -970.945544    2             
iter:   4  21:51:38  -4.45  -3.35  -970.945371    1             
iter:   5  21:52:34  -4.46  -3.39  -970.944890    2             
iter:   6  21:53:30  -4.22  -3.50  -970.944214    2             
iter:   7  21:54:26  -5.08  -3.66  -970.943046    2             
iter:   8  21:55:22  -5.39  -3.93  -970.943021    1             
iter:   9  21:56:18  -5.54  -4.07  -970.943059    2             
iter:  10  21:57:14  -5.97  -4.09  -970.942966    2             
iter:  11  21:58:09  -6.99  -4.39  -970.942965    1             
iter:  12  21:59:05  -6.25  -4.40  -970.942987    2             
iter:  13  22:00:01  -6.48  -4.41  -970.942967    2             
iter:  14  22:00:57  -7.34  -4.73  -970.942965    1             
iter:  15  22:01:53  -7.52  -4.79  -970.942967    1             

Converged after 15 iterations.

Dipole moment: (-17.180367, 2.229121, -0.999254) |e|*Ang

Energy contributions relative to reference atoms: (reference = -1046916.965077)

Kinetic:       +702.407356
Potential:     -893.101486
External:        +0.000000
XC:            -788.014923
Entropy (-ST):   -0.000510
Local:           +7.766342
--------------------------
Free energy:   -970.943222
Extrapolated:  -970.942967

Fermi level: -0.63732

Showing only first 2 kpts
 Kpt  Band  Eigenvalues  Occupancy
  0   462     -1.70325    0.22222
  0   463     -1.70000    0.22222
  0   464      0.21068    0.00005
  0   465      0.36415    0.00001

  1   462     -1.71961    0.44444
  1   463     -1.68831    0.44443
  1   464      0.40143    0.00001
  1   465      0.50459    0.00000



Forces in eV/Ang:
  0 O    -1.89723    0.00730    1.54464
  1 O    -1.93053    0.00016    1.53602
  2 Ti    3.82834    0.00838    1.95508
  3 Ti    3.83219   -0.02956    1.95026
  4 Ti   -1.88820   -0.03188   -1.81703
  5 Ti   -1.85915    0.00663   -2.00653
  6 O     0.90649    0.01856   -0.20864
  7 O     0.85524    0.06111   -0.20231
  8 O    -0.67148    0.00674   -0.63635
  9 O    -0.69605    0.00705   -0.64196
 10 O    -0.27966    0.01211   -0.86433
 11 O    -0.22780    0.10044   -0.90959
 12 O    -0.03685    0.00095    0.04173
 13 O    -0.03852   -0.00491    0.07858
 14 Ti    0.06867   -0.01323   -0.04122
 15 Ti    0.05582    0.01185    0.00619
 16 Ti    0.02782   -0.02246    0.07163
 17 Ti    0.04325    0.01950    0.01557
 18 O     0.02575   -0.01599   -0.04967
 19 O     0.05049   -0.02404   -0.02799
 20 O     0.00084    0.00312    0.00758
 21 O     0.01427    0.00991    0.02667
 22 O     0.01682   -0.04121    0.05664
 23 O     0.02898   -0.02235    0.03895
 24 O    -0.04923   -0.01106    0.04138
 25 O    -0.06984   -0.03206    0.01788
 26 Ti    0.09851   -0.08714    0.01748
 27 Ti    0.10346    0.05968    0.06743
 28 Ti   -0.12626   -0.01812    0.11423
 29 Ti   -0.03731    0.01340    0.02989
 30 O     0.01941    0.01542   -0.03051
 31 O    -0.03111    0.01612   -0.07134
 32 O     0.05483   -0.01195   -0.05134
 33 O     0.05771    0.01109   -0.08837
 34 O    -0.13014   -0.04477    0.13047
 35 O    -0.08492    0.07784    0.12430
 36 O    -1.90810    0.00199    1.52639
 37 O    -1.95194    0.00644    1.58264
 38 Ti    3.61614   -0.05520    1.73837
 39 Ti    3.87503   -0.00785    1.93839
 40 Ti   -1.85639   -0.00020   -1.60516
 41 Ti   -1.49386   -0.03817   -1.65923
 42 O     0.95492    0.01425   -0.22595
 43 O     0.82926   -0.00235   -0.19845
 44 O    -0.74542   -0.02820   -0.75682
 45 O    -0.71170    0.01701   -0.76046
 46 O    -0.32200    0.01515   -0.88182
 47 O    -0.19749    0.00543   -0.91058
 48 O    -0.00777   -0.00593    0.03880
 49 O    -0.00789    0.00004   -0.00244
 50 Ti   -0.01058   -0.00476    0.01253
 51 Ti   -0.04071   -0.00722    0.05137
 52 Ti   -0.00671    0.03492    0.04404
 53 Ti   -0.01655   -0.00450    0.01464
 54 O     0.08227    0.00500   -0.02091
 55 O     0.11533    0.04952   -0.02808
 56 O     0.01766   -0.01063    0.03896
 57 O     0.01724   -0.02277    0.07698
 58 O     0.04968   -0.00182    0.05981
 59 O     0.04299    0.02333    0.10108
 60 O     0.02691    0.01007   -0.00771
 61 O    -0.04079   -0.01531   -0.08456
 62 Ti   -0.06066   -0.09805    0.05017
 63 Ti    0.06364   -0.06803    0.13505
 64 Ti   -0.20326    0.05379    0.04001
 65 Ti   -0.08312   -0.04726    0.03195
 66 O     0.04588   -0.00520    0.15227
 67 O    -0.01619   -0.01484    0.00440
 68 O     0.01188    0.02142   -0.04309
 69 O     0.01484    0.03747   -0.17731
 70 O     0.00365    0.00299    0.21097
 71 O    -0.09417   -0.00248   -0.04089
 72 O    -1.90387   -0.00280    1.54147
 73 O    -1.97755   -0.00701    1.59008
 74 Ti    3.57894    0.05139    1.70506
 75 Ti    3.86913    0.03123    1.97052
 76 Ti   -1.97896    0.03346   -2.02379
 77 Ti   -1.54640    0.02695   -2.02091
 78 O     0.96474   -0.00350   -0.21865
 79 O     0.84625   -0.06269   -0.18001
 80 O    -0.69753   -0.02133   -0.64448
 81 O    -0.72055   -0.00942   -0.67568
 82 O    -0.32824   -0.02738   -0.87954
 83 O    -0.21944   -0.10680   -0.85646
 84 O    -0.04973   -0.00237    0.07128
 85 O    -0.01240   -0.01163    0.06611
 86 Ti    0.06489   -0.01313   -0.05377
 87 Ti    0.09864   -0.04550   -0.06349
 88 Ti    0.02573   -0.01012    0.03553
 89 Ti   -0.03722    0.06780    0.03062
 90 O     0.00409    0.01923   -0.03498
 91 O     0.01247   -0.03409   -0.04020
 92 O     0.01774   -0.01263    0.02933
 93 O     0.07631    0.01984    0.06260
 94 O     0.02406    0.00226    0.05235
 95 O     0.01604    0.00317    0.03295
 96 O     0.02940   -0.00135   -0.02101
 97 O    -0.05072    0.01805   -0.01889
 98 Ti    0.00142   -0.10500    0.14138
 99 Ti    0.07773    0.03184    0.03650
100 Ti   -0.05965   -0.03718    0.07120
101 Ti    0.02564    0.02916    0.08402
102 O     0.07919    0.05079    0.14238
103 O    -0.02455   -0.02104    0.11386
104 O     0.06695    0.00650   -0.11085
105 O    -0.10862    0.03829   -0.12782
106 O    -0.10730    0.00213    0.11086
107 O    -0.06605   -0.06083    0.11839
108 V     0.03338   -0.00568   -0.02606
109 V    -0.07087    0.27081    0.01829
110 O    -0.02126   -0.09004    0.10852
111 O     0.07009   -0.00167    0.03555
112 O     0.00809   -0.01433    0.06434
113 O    -0.26572   -0.20196   -0.46461
114 O    -0.04829    0.06930    0.02870
115 O     0.04896   -0.10716   -0.02857
116 H    -0.18687    0.08328    0.25669
117 H     0.44554    0.08372    0.24904

System changes: positions 

Initializing position-dependent things.

Density initialized from wave functions
                                                
                                                
                                                
                                                
                                                
                                                
                      O                         
                                                
              O     O V O       Ti              
                  Oi O   O      O    O          
                  O    OV   OO      Ti          
           O H TiH      O    Ti   O             
               O      Oi   O O                  
         O     O    O      Ti     Ti            
             Tii   OOi     OO   O               
              O   O     O Ti   TiOi             
          O Ti   TiO      O    O     O          
            O   O      OTi    TiO               
                TiO      O  O  O   O Ti         
         Ti   O O    O Oi    Ti     O           
         O     Ti    Ti    OTi  O Ti            
             OTi    O O   O                     
                  O Ti     Oi     O             
             Oi     O    O      Ti              
           O     OTi    Ti     O                
          Ti          O      O                  
               O                                
                                                
                                                
                                                
                                                

Positions:
   0 O      8.476572    1.911173    6.000000    ( 0.0000,  0.0000,  0.0000)
   1 O      3.305699    0.000000    6.000000    ( 0.0000,  0.0000,  0.0000)
   2 Ti     1.412752    0.000000    6.752957    ( 0.0000,  0.0000,  0.0000)
   3 Ti     6.583625    1.911173    6.752957    ( 0.0000,  0.0000,  0.0000)
   4 Ti     9.522250    1.911173    7.640878    ( 0.0000,  0.0000,  0.0000)
   5 Ti     4.351376    0.000000    7.640878    ( 0.0000,  0.0000,  0.0000)
   6 O      9.861551    0.000000    7.505914    ( 0.0000,  0.0000,  0.0000)
   7 O      4.690678    1.911173    7.505914    ( 0.0000,  0.0000,  0.0000)
   8 O      7.629303    1.911173    8.393834    ( 0.0000,  0.0000,  0.0000)
   9 O      2.458430    0.000000    8.393834    ( 0.0000,  0.0000,  0.0000)
  10 O      6.244323    0.000000    6.887921    ( 0.0000,  0.0000,  0.0000)
  11 O      1.073450    1.911173    6.887921    ( 0.0000,  0.0000,  0.0000)
  12 O      9.800260    1.918751    9.595527    ( 0.0000,  0.0000,  0.0000)
  13 O      4.626035    0.005682    9.581559    ( 0.0000,  0.0000,  0.0000)
  14 Ti     2.760791    0.019664   10.376760    ( 0.0000,  0.0000,  0.0000)
  15 Ti     7.965353    1.903389   10.370623    ( 0.0000,  0.0000,  0.0000)
  16 Ti     0.509369    1.929857   11.186835    ( 0.0000,  0.0000,  0.0000)
  17 Ti     5.661201   -0.006772   11.135510    ( 0.0000,  0.0000,  0.0000)
  18 O      0.922287    0.007997   11.067807    ( 0.0000,  0.0000,  0.0000)
  19 O      6.100736    1.907280   11.084991    ( 0.0000,  0.0000,  0.0000)
  20 O      9.043861    1.907782   11.967437    ( 0.0000,  0.0000,  0.0000)
  21 O      3.870546   11.466414   11.951605    ( 0.0000,  0.0000,  0.0000)
  22 O      7.568694    0.004365   10.453394    ( 0.0000,  0.0000,  0.0000)
  23 O      2.392710    1.922403   10.451673    ( 0.0000,  0.0000,  0.0000)
  24 O      0.943241    1.875788   13.117695    ( 0.0000,  0.0000,  0.0000)
  25 O      6.114195   11.453978   13.072952    ( 0.0000,  0.0000,  0.0000)
  26 Ti     4.226291    0.055886   14.002924    ( 0.0000,  0.0000,  0.0000)
  27 Ti     9.432675    1.832379   14.003018    ( 0.0000,  0.0000,  0.0000)
  28 Ti     1.905571    1.914644   14.716491    ( 0.0000,  0.0000,  0.0000)
  29 Ti     7.028726   11.437564   14.605314    ( 0.0000,  0.0000,  0.0000)
  30 O      2.401054   11.440913   14.777677    ( 0.0000,  0.0000,  0.0000)
  31 O      7.579894    1.839132   14.766879    ( 0.0000,  0.0000,  0.0000)
  32 O      0.210375    1.883548   15.474164    ( 0.0000,  0.0000,  0.0000)
  33 O      5.410408    0.016950   15.457098    ( 0.0000,  0.0000,  0.0000)
  34 O      9.027930   11.421415   13.977062    ( 0.0000,  0.0000,  0.0000)
  35 O      3.829959    1.908485   13.985271    ( 0.0000,  0.0000,  0.0000)
  36 O      8.476572    5.733518    6.000000    ( 0.0000,  0.0000,  0.0000)
  37 O      3.305699    3.822345    6.000000    ( 0.0000,  0.0000,  0.0000)
  38 Ti     1.412752    3.822345    6.752957    ( 0.0000,  0.0000,  0.0000)
  39 Ti     6.583625    5.733518    6.752957    ( 0.0000,  0.0000,  0.0000)
  40 Ti     9.522250    5.733518    7.640878    ( 0.0000,  0.0000,  0.0000)
  41 Ti     4.351376    3.822345    7.640878    ( 0.0000,  0.0000,  0.0000)
  42 O      9.861551    3.822345    7.505914    ( 0.0000,  0.0000,  0.0000)
  43 O      4.690678    5.733518    7.505914    ( 0.0000,  0.0000,  0.0000)
  44 O      7.629303    5.733518    8.393834    ( 0.0000,  0.0000,  0.0000)
  45 O      2.458430    3.822345    8.393834    ( 0.0000,  0.0000,  0.0000)
  46 O      6.244323    3.822345    6.887921    ( 0.0000,  0.0000,  0.0000)
  47 O      1.073450    5.733518    6.887921    ( 0.0000,  0.0000,  0.0000)
  48 O      9.801168    5.737641    9.605229    ( 0.0000,  0.0000,  0.0000)
  49 O      4.633121    3.821605    9.611185    ( 0.0000,  0.0000,  0.0000)
  50 Ti     2.785266    3.829415   10.315652    ( 0.0000,  0.0000,  0.0000)
  51 Ti     8.012172    5.718838   10.353847    ( 0.0000,  0.0000,  0.0000)
  52 Ti     0.536416    5.714147   11.270093    ( 0.0000,  0.0000,  0.0000)
  53 Ti     5.732415    3.806704   11.220480    ( 0.0000,  0.0000,  0.0000)
  54 O      0.922322    3.821829   11.087787    ( 0.0000,  0.0000,  0.0000)
  55 O      6.083155    5.721827   11.095236    ( 0.0000,  0.0000,  0.0000)
  56 O      9.028058    5.708766   11.974768    ( 0.0000,  0.0000,  0.0000)
  57 O      3.857810    3.810468   11.945657    ( 0.0000,  0.0000,  0.0000)
  58 O      7.561957    3.819831   10.464580    ( 0.0000,  0.0000,  0.0000)
  59 O      2.388107    5.729727   10.464304    ( 0.0000,  0.0000,  0.0000)
  60 O      0.913059    5.780416   13.142990    ( 0.0000,  0.0000,  0.0000)
  61 O      6.063281    3.810726   13.195014    ( 0.0000,  0.0000,  0.0000)
  62 Ti     4.168006    3.893594   13.818012    ( 0.0000,  0.0000,  0.0000)
  63 Ti     9.467680    5.746645   13.989324    ( 0.0000,  0.0000,  0.0000)
  64 Ti     1.942335    5.716735   14.928735    ( 0.0000,  0.0000,  0.0000)
  65 Ti     7.237232    3.796316   14.781199    ( 0.0000,  0.0000,  0.0000)
  66 O      2.337456    3.833385   14.653257    ( 0.0000,  0.0000,  0.0000)
  67 O      7.547310    5.755892   14.790984    ( 0.0000,  0.0000,  0.0000)
  68 O      0.200382    5.704673   15.502946    ( 0.0000,  0.0000,  0.0000)
  69 O      5.196128    3.846351   15.552728    ( 0.0000,  0.0000,  0.0000)
  70 O      8.975635    3.809167   14.020840    ( 0.0000,  0.0000,  0.0000)
  71 O      3.855682    5.743349   13.928152    ( 0.0000,  0.0000,  0.0000)
  72 O      8.476572    9.555862    6.000000    ( 0.0000,  0.0000,  0.0000)
  73 O      3.305699    7.644690    6.000000    ( 0.0000,  0.0000,  0.0000)
  74 Ti     1.412752    7.644690    6.752957    ( 0.0000,  0.0000,  0.0000)
  75 Ti     6.583625    9.555862    6.752957    ( 0.0000,  0.0000,  0.0000)
  76 Ti     9.522250    9.555862    7.640878    ( 0.0000,  0.0000,  0.0000)
  77 Ti     4.351376    7.644690    7.640878    ( 0.0000,  0.0000,  0.0000)
  78 O      9.861551    7.644690    7.505914    ( 0.0000,  0.0000,  0.0000)
  79 O      4.690678    9.555862    7.505914    ( 0.0000,  0.0000,  0.0000)
  80 O      7.629303    9.555862    8.393834    ( 0.0000,  0.0000,  0.0000)
  81 O      2.458430    7.644690    8.393834    ( 0.0000,  0.0000,  0.0000)
  82 O      6.244323    7.644690    6.887921    ( 0.0000,  0.0000,  0.0000)
  83 O      1.073450    9.555862    6.887921    ( 0.0000,  0.0000,  0.0000)
  84 O      9.793508    9.565857    9.580174    ( 0.0000,  0.0000,  0.0000)
  85 O      4.626719    7.637449    9.585251    ( 0.0000,  0.0000,  0.0000)
  86 Ti     2.717796    7.650106   10.326265    ( 0.0000,  0.0000,  0.0000)
  87 Ti     7.930615    9.576264   10.385819    ( 0.0000,  0.0000,  0.0000)
  88 Ti     0.492082    9.567630   11.123486    ( 0.0000,  0.0000,  0.0000)
  89 Ti     5.720844    7.595296   11.093995    ( 0.0000,  0.0000,  0.0000)
  90 O      0.920583    7.649931   11.069139    ( 0.0000,  0.0000,  0.0000)
  91 O      6.097033    9.552140   11.070268    ( 0.0000,  0.0000,  0.0000)
  92 O      9.026352    9.535255   11.950334    ( 0.0000,  0.0000,  0.0000)
  93 O      3.848169    7.651549   11.926000    ( 0.0000,  0.0000,  0.0000)
  94 O      7.557778    7.628787   10.450795    ( 0.0000,  0.0000,  0.0000)
  95 O      2.384148    9.558571   10.447873    ( 0.0000,  0.0000,  0.0000)
  96 O      0.905147    9.600126   13.063592    ( 0.0000,  0.0000,  0.0000)
  97 O      6.076476    7.670896   13.110131    ( 0.0000,  0.0000,  0.0000)
  98 Ti     4.109844    7.692488   13.787618    ( 0.0000,  0.0000,  0.0000)
  99 Ti     9.396740    9.538171   14.016317    ( 0.0000,  0.0000,  0.0000)
 100 Ti     1.862255    9.581723   14.571883    ( 0.0000,  0.0000,  0.0000)
 101 Ti     7.053685    7.606466   14.595958    ( 0.0000,  0.0000,  0.0000)
 102 O      2.358459    7.692228   14.621307    ( 0.0000,  0.0000,  0.0000)
 103 O      7.551252    9.521505   14.838155    ( 0.0000,  0.0000,  0.0000)
 104 O      0.242452    9.511937   15.448261    ( 0.0000,  0.0000,  0.0000)
 105 O      5.359884    7.470985   15.583079    ( 0.0000,  0.0000,  0.0000)
 106 O      8.959244    7.632800   13.979375    ( 0.0000,  0.0000,  0.0000)
 107 O      3.880820    9.560354   13.976488    ( 0.0000,  0.0000,  0.0000)
 108 V      4.410043    6.731453   17.032401    ( 0.0000,  0.0000,  0.0000)
 109 V      5.787543    3.881801   17.200835    ( 0.0000,  0.0000,  0.0000)
 110 O      5.149689    2.657905   18.043954    ( 0.0000,  0.0000,  0.0000)
 111 O      2.914922    5.951280   16.555060    ( 0.0000,  0.0000,  0.0000)
 112 O      5.407260    5.519634   17.874582    ( 0.0000,  0.0000,  0.0000)
 113 O      2.653667    1.928095   16.797450    ( 0.0000,  0.0000,  0.0000)
 114 O      4.079465    7.900158   18.053473    ( 0.0000,  0.0000,  0.0000)
 115 O      7.447575    3.731435   16.720864    ( 0.0000,  0.0000,  0.0000)
 116 H      1.991517    2.159122   17.463843    ( 0.0000,  0.0000,  0.0000)
 117 H      3.545612    2.113923   17.181162    ( 0.0000,  0.0000,  0.0000)

Unit cell:
           periodic     x           y           z      points  spacing
  1. axis:    yes   10.341746    0.000000    0.000000    54     0.1915
  2. axis:    yes   -0.000000   11.467000    0.000000    60     0.1911
  3. axis:    no     0.000000    0.000000   23.497201   125     0.1880

  Lengths:  10.341746  11.467000  23.497201
  Angles:   90.000000  90.000000  90.000000

Effective grid spacing dv^(1/3) = 0.1902

                     log10-error:    total        iterations:
           time      wfs    density  energy       fermi  poisson
iter:   1  22:03:10  -3.03   +inf  -970.974228    2             
iter:   2  22:04:06  -3.93  -3.30  -970.974858    1             
iter:   3  22:05:01  -4.06  -3.32  -970.970957    2             
iter:   4  22:05:57  -4.58  -3.57  -970.971100    1             
iter:   5  22:06:53  -4.48  -3.61  -970.971239    1             
iter:   6  22:07:49  -4.82  -3.70  -970.970421    2             
iter:   7  22:08:45  -5.36  -3.99  -970.970395    2             
iter:   8  22:09:41  -5.86  -4.05  -970.970295    1             
iter:   9  22:10:37  -6.24  -4.29  -970.970312    1             
iter:  10  22:11:33  -5.94  -4.30  -970.970296    2             
iter:  11  22:12:29  -6.96  -4.54  -970.970282    1             
iter:  12  22:13:24  -7.00  -4.60  -970.970280    1             
iter:  13  22:14:20  -6.83  -4.62  -970.970283    1             
iter:  14  22:15:16  -6.91  -4.84  -970.970280    1             
iter:  15  22:16:12  -7.84  -5.00  -970.970280    1             

Converged after 15 iterations.

Dipole moment: (-17.247896, 2.747068, -1.009061) |e|*Ang

Energy contributions relative to reference atoms: (reference = -1046916.965077)

Kinetic:       +701.761010
Potential:     -892.605313
External:        +0.000000
XC:            -787.900865
Entropy (-ST):   -0.000504
Local:           +7.775140
--------------------------
Free energy:   -970.970532
Extrapolated:  -970.970280

Fermi level: -0.64185

Showing only first 2 kpts
 Kpt  Band  Eigenvalues  Occupancy
  0   462     -1.70943    0.22222
  0   463     -1.70689    0.22222
  0   464      0.20766    0.00005
  0   465      0.35936    0.00001

  1   462     -1.72561    0.44444
  1   463     -1.69502    0.44443
  1   464      0.39877    0.00001
  1   465      0.50027    0.00000



Forces in eV/Ang:
  0 O    -1.89724    0.00678    1.54486
  1 O    -1.92967   -0.00054    1.53792
  2 Ti    3.82553    0.01175    1.95213
  3 Ti    3.83228   -0.02620    1.95132
  4 Ti   -1.88692   -0.02939   -1.79766
  5 Ti   -1.85623    0.01095   -1.99328
  6 O     0.90737    0.01425   -0.20796
  7 O     0.85653    0.05592   -0.20260
  8 O    -0.68592    0.00608   -0.65328
  9 O    -0.71180    0.00700   -0.66616
 10 O    -0.27938    0.00712   -0.86318
 11 O    -0.22797    0.09563   -0.90871
 12 O     0.01505    0.00155    0.04250
 13 O     0.02101   -0.00702    0.07973
 14 Ti    0.07335   -0.01290    0.00480
 15 Ti    0.07498    0.00427    0.03874
 16 Ti    0.00931   -0.02244    0.07159
 17 Ti    0.02594    0.01159    0.00105
 18 O    -0.02491   -0.01420   -0.02891
 19 O    -0.01025   -0.00642   -0.01026
 20 O    -0.00275    0.00476   -0.02920
 21 O     0.01714    0.01239   -0.00125
 22 O     0.01945   -0.05049    0.05430
 23 O     0.03171   -0.02736    0.03569
 24 O     0.00060   -0.00209    0.03463
 25 O    -0.01781   -0.03939    0.02043
 26 Ti    0.07643   -0.06208    0.06823
 27 Ti    0.09566    0.02462    0.11952
 28 Ti   -0.16250   -0.01371    0.11637
 29 Ti   -0.08121    0.02432    0.02963
 30 O    -0.00918   -0.01040   -0.02282
 31 O    -0.08087    0.00515   -0.06556
 32 O     0.03623   -0.01339   -0.07302
 33 O     0.05107    0.01348   -0.10495
 34 O    -0.08240   -0.03486    0.11277
 35 O    -0.01783    0.04732    0.09733
 36 O    -1.90533    0.00258    1.53044
 37 O    -1.95230    0.00654    1.58112
 38 Ti    3.62243   -0.05504    1.74409
 39 Ti    3.86774   -0.01213    1.93642
 40 Ti   -1.85083   -0.00365   -1.58176
 41 Ti   -1.50036   -0.03938   -1.63749
 42 O     0.95326    0.01708   -0.22517
 43 O     0.83243    0.00272   -0.19909
 44 O    -0.74136   -0.02811   -0.74872
 45 O    -0.72057    0.02063   -0.77192
 46 O    -0.31925    0.01761   -0.88594
 47 O    -0.20006    0.00927   -0.91107
 48 O     0.00307   -0.00717    0.02071
 49 O     0.02328    0.00132   -0.01883
 50 Ti    0.00915   -0.00545    0.02169
 51 Ti    0.00570   -0.01078    0.09035
 52 Ti   -0.02247    0.03381    0.06206
 53 Ti   -0.00395    0.00257    0.00251
 54 O     0.02379    0.00704    0.00673
 55 O     0.07142    0.05659   -0.01718
 56 O     0.03356   -0.01101    0.00003
 57 O     0.01350   -0.02342    0.09145
 58 O     0.04821   -0.00720    0.05382
 59 O     0.05347    0.02036    0.08861
 60 O     0.00106    0.00683   -0.03069
 61 O    -0.03644   -0.01701   -0.02821
 62 Ti   -0.10256   -0.07558    0.01647
 63 Ti    0.06693   -0.05399    0.16190
 64 Ti   -0.19546    0.03230    0.08915
 65 Ti   -0.07738   -0.05991    0.02242
 66 O     0.04823    0.02484    0.11018
 67 O    -0.04793    0.01698    0.01419
 68 O     0.01050    0.02564   -0.06430
 69 O     0.00433    0.05031   -0.15661
 70 O     0.06112    0.01074    0.18836
 71 O    -0.07278   -0.03148   -0.05157
 72 O    -1.90438   -0.00293    1.54345
 73 O    -1.97532   -0.00647    1.59085
 74 Ti    3.58202    0.04765    1.70756
 75 Ti    3.86367    0.03216    1.96377
 76 Ti   -1.96982    0.03497   -2.01324
 77 Ti   -1.55067    0.02379   -2.00962
 78 O     0.96331   -0.00245   -0.21685
 79 O     0.84851   -0.06312   -0.17881
 80 O    -0.71486   -0.02188   -0.66831
 81 O    -0.73286   -0.01096   -0.70619
 82 O    -0.32677   -0.02492   -0.87872
 83 O    -0.22120   -0.10564   -0.85378
 84 O     0.00941   -0.00293    0.07014
 85 O     0.04323   -0.01310    0.05030
 86 Ti    0.05002   -0.01190   -0.02959
 87 Ti    0.09462   -0.03480   -0.01187
 88 Ti    0.01701   -0.01033    0.01691
 89 Ti   -0.01840    0.05910   -0.00734
 90 O    -0.03495    0.02941   -0.01094
 91 O    -0.03452   -0.01903   -0.02220
 92 O     0.02745   -0.01506    0.01370
 93 O     0.09030    0.02892    0.12293
 94 O     0.01802    0.00093    0.05374
 95 O     0.01469   -0.00812    0.03130
 96 O     0.03870   -0.00989   -0.01032
 97 O    -0.01922    0.02296   -0.00808
 98 Ti   -0.03994   -0.11700    0.15678
 99 Ti    0.07062    0.05558    0.07439
100 Ti   -0.07649   -0.01515    0.07040
101 Ti   -0.01261    0.02452    0.04374
102 O     0.10305    0.09518    0.10826
103 O    -0.03191   -0.02783    0.08740
104 O     0.05218    0.00550   -0.11528
105 O    -0.12948   -0.00489   -0.03476
106 O    -0.04728   -0.01812    0.09591
107 O    -0.04665   -0.08819    0.09487
108 V     0.04613   -0.04757   -0.12682
109 V    -0.06214    0.21845   -0.01300
110 O    -0.04858   -0.10412    0.11594
111 O     0.05160   -0.00661    0.00912
112 O     0.01630    0.02394    0.05735
113 O     0.03754   -0.15089   -0.32600
114 O    -0.06370    0.13227    0.08487
115 O     0.08222   -0.09027    0.00658
116 H    -0.21386    0.08931    0.26840
117 H     0.19184    0.02799    0.12966

System changes: positions 

Initializing position-dependent things.

Density initialized from wave functions
                                                
                                                
                                                
                                                
                                                
                                                
                      O                         
                                                
              O     O V O       Ti              
                  Oi O   O      O    O          
                  O    OV   OO      Ti          
           O H TiH      O    Ti   O             
               O      Oi   O O                  
         O     O    O      Ti     Ti            
             Tii   OOi     OO   O               
              O   O     O Ti   TiOi             
          O Ti   TiOi     O    O     O          
            O   O      OTi    TiO               
         Ti     TiO      O  O  O   O Ti         
              O O    O Oi    Ti     O           
         O     Ti    Ti    OTi  O Ti            
             OTi    O O   O                     
                  O Ti     Oi     O             
             Oi     O    O      Ti              
[...]
   4 Ti     9.522250    1.911173    7.640878    ( 0.0000,  0.0000,  0.0000)
   5 Ti     4.351376    0.000000    7.640878    ( 0.0000,  0.0000,  0.0000)
   6 O      9.861551    0.000000    7.505914    ( 0.0000,  0.0000,  0.0000)
   7 O      4.690678    1.911173    7.505914    ( 0.0000,  0.0000,  0.0000)
   8 O      7.629303    1.911173    8.393834    ( 0.0000,  0.0000,  0.0000)
   9 O      2.458430    0.000000    8.393834    ( 0.0000,  0.0000,  0.0000)
  10 O      6.244323    0.000000    6.887921    ( 0.0000,  0.0000,  0.0000)
  11 O      1.073450    1.911173    6.887921    ( 0.0000,  0.0000,  0.0000)
  12 O      9.808096    1.914486    9.619829    ( 0.0000,  0.0000,  0.0000)
  13 O      4.627797   -0.008194    9.601363    ( 0.0000,  0.0000,  0.0000)
  14 Ti     2.779834    0.003755   10.400491    ( 0.0000,  0.0000,  0.0000)
  15 Ti     7.990318    1.891593   10.390762    ( 0.0000,  0.0000,  0.0000)
  16 Ti     0.517932    1.917316   11.233511    ( 0.0000,  0.0000,  0.0000)
  17 Ti     5.672821    0.000371   11.154910    ( 0.0000,  0.0000,  0.0000)
  18 O      0.923188    0.000003   11.084988    ( 0.0000,  0.0000,  0.0000)
  19 O      6.104727    1.896922   11.093841    ( 0.0000,  0.0000,  0.0000)
  20 O      9.051611    1.889493   12.002316    ( 0.0000,  0.0000,  0.0000)
  21 O      3.873087   11.473424   11.983777    ( 0.0000,  0.0000,  0.0000)
  22 O      7.587938   -0.005646   10.500945    ( 0.0000,  0.0000,  0.0000)
  23 O      2.401822    1.912281   10.496858    ( 0.0000,  0.0000,  0.0000)
  24 O      0.929109    1.870974   13.184604    ( 0.0000,  0.0000,  0.0000)
  25 O      6.090813   11.368850   13.104990    ( 0.0000,  0.0000,  0.0000)
  26 Ti     4.214977   -0.017826   14.053229    ( 0.0000,  0.0000,  0.0000)
  27 Ti     9.425562    1.835744   14.052515    ( 0.0000,  0.0000,  0.0000)
  28 Ti     1.874764    1.900180   14.817155    ( 0.0000,  0.0000,  0.0000)
  29 Ti     7.013427   11.415803   14.628658    ( 0.0000,  0.0000,  0.0000)
  30 O      2.372385   11.441664   14.822447    ( 0.0000,  0.0000,  0.0000)
  31 O      7.516911    1.842343   14.699558    ( 0.0000,  0.0000,  0.0000)
  32 O      0.180502    1.881131   15.547181    ( 0.0000,  0.0000,  0.0000)
  33 O      5.404096    0.008917   15.491649    ( 0.0000,  0.0000,  0.0000)
  34 O      9.018076   11.411778   14.106627    ( 0.0000,  0.0000,  0.0000)
  35 O      3.823939    1.909069   14.098392    ( 0.0000,  0.0000,  0.0000)
  36 O      8.476572    5.733518    6.000000    ( 0.0000,  0.0000,  0.0000)
  37 O      3.305699    3.822345    6.000000    ( 0.0000,  0.0000,  0.0000)
  38 Ti     1.412752    3.822345    6.752957    ( 0.0000,  0.0000,  0.0000)
  39 Ti     6.583625    5.733518    6.752957    ( 0.0000,  0.0000,  0.0000)
  40 Ti     9.522250    5.733518    7.640878    ( 0.0000,  0.0000,  0.0000)
  41 Ti     4.351376    3.822345    7.640878    ( 0.0000,  0.0000,  0.0000)
  42 O      9.861551    3.822345    7.505914    ( 0.0000,  0.0000,  0.0000)
  43 O      4.690678    5.733518    7.505914    ( 0.0000,  0.0000,  0.0000)
  44 O      7.629303    5.733518    8.393834    ( 0.0000,  0.0000,  0.0000)
  45 O      2.458430    3.822345    8.393834    ( 0.0000,  0.0000,  0.0000)
  46 O      6.244323    3.822345    6.887921    ( 0.0000,  0.0000,  0.0000)
  47 O      1.073450    5.733518    6.887921    ( 0.0000,  0.0000,  0.0000)
  48 O      9.804148    5.726925    9.626105    ( 0.0000,  0.0000,  0.0000)
  49 O      4.632983    3.818113    9.624363    ( 0.0000,  0.0000,  0.0000)
  50 Ti     2.785063    3.816259   10.325927    ( 0.0000,  0.0000,  0.0000)
  51 Ti     8.024790    5.712994   10.383099    ( 0.0000,  0.0000,  0.0000)
  52 Ti     0.532258    5.714873   11.311931    ( 0.0000,  0.0000,  0.0000)
  53 Ti     5.737317    3.815502   11.238256    ( 0.0000,  0.0000,  0.0000)
  54 O      0.928352    3.818117   11.106119    ( 0.0000,  0.0000,  0.0000)
  55 O      6.094001    5.719800   11.101811    ( 0.0000,  0.0000,  0.0000)
  56 O      9.032948    5.705045   12.010250    ( 0.0000,  0.0000,  0.0000)
  57 O      3.845914    3.772421   11.969979    ( 0.0000,  0.0000,  0.0000)
  58 O      7.581675    3.809931   10.516513    ( 0.0000,  0.0000,  0.0000)
  59 O      2.413932    5.728107   10.516139    ( 0.0000,  0.0000,  0.0000)
  60 O      0.895065    5.767560   13.194215    ( 0.0000,  0.0000,  0.0000)
  61 O      6.028116    3.793120   13.210528    ( 0.0000,  0.0000,  0.0000)
  62 Ti     4.117454    3.804203   13.833752    ( 0.0000,  0.0000,  0.0000)
  63 Ti     9.457089    5.726038   14.060954    ( 0.0000,  0.0000,  0.0000)
  64 Ti     1.920754    5.713052   14.982696    ( 0.0000,  0.0000,  0.0000)
  65 Ti     7.184945    3.777085   14.804740    ( 0.0000,  0.0000,  0.0000)
  66 O      2.320974    3.825103   14.724710    ( 0.0000,  0.0000,  0.0000)
  67 O      7.520671    5.737919   14.822819    ( 0.0000,  0.0000,  0.0000)
  68 O      0.186422    5.702884   15.569257    ( 0.0000,  0.0000,  0.0000)
  69 O      5.174500    3.984411   15.549304    ( 0.0000,  0.0000,  0.0000)
  70 O      8.975048    3.800978   14.109803    ( 0.0000,  0.0000,  0.0000)
  71 O      3.791703    5.737154   13.915425    ( 0.0000,  0.0000,  0.0000)
  72 O      8.476572    9.555862    6.000000    ( 0.0000,  0.0000,  0.0000)
  73 O      3.305699    7.644690    6.000000    ( 0.0000,  0.0000,  0.0000)
  74 Ti     1.412752    7.644690    6.752957    ( 0.0000,  0.0000,  0.0000)
  75 Ti     6.583625    9.555862    6.752957    ( 0.0000,  0.0000,  0.0000)
  76 Ti     9.522250    9.555862    7.640878    ( 0.0000,  0.0000,  0.0000)
  77 Ti     4.351376    7.644690    7.640878    ( 0.0000,  0.0000,  0.0000)
  78 O      9.861551    7.644690    7.505914    ( 0.0000,  0.0000,  0.0000)
  79 O      4.690678    9.555862    7.505914    ( 0.0000,  0.0000,  0.0000)
  80 O      7.629303    9.555862    8.393834    ( 0.0000,  0.0000,  0.0000)
  81 O      2.458430    7.644690    8.393834    ( 0.0000,  0.0000,  0.0000)
  82 O      6.244323    7.644690    6.887921    ( 0.0000,  0.0000,  0.0000)
  83 O      1.073450    9.555862    6.887921    ( 0.0000,  0.0000,  0.0000)
  84 O      9.800773    9.556436    9.603674    ( 0.0000,  0.0000,  0.0000)
  85 O      4.631320    7.621032    9.599389    ( 0.0000,  0.0000,  0.0000)
  86 Ti     2.739237    7.633740   10.342953    ( 0.0000,  0.0000,  0.0000)
  87 Ti     7.960180    9.557317   10.406508    ( 0.0000,  0.0000,  0.0000)
  88 Ti     0.499382    9.558796   11.161862    ( 0.0000,  0.0000,  0.0000)
  89 Ti     5.719458    7.617440   11.120607    ( 0.0000,  0.0000,  0.0000)
  90 O      0.924964    7.641344   11.084194    ( 0.0000,  0.0000,  0.0000)
  91 O      6.099826    9.542621   11.062195    ( 0.0000,  0.0000,  0.0000)
  92 O      9.035889    9.527285   11.990022    ( 0.0000,  0.0000,  0.0000)
  93 O      3.865206    7.687129   11.958212    ( 0.0000,  0.0000,  0.0000)
  94 O      7.581588    7.625956   10.498727    ( 0.0000,  0.0000,  0.0000)
  95 O      2.395516    9.552070   10.491329    ( 0.0000,  0.0000,  0.0000)
  96 O      0.902525    9.585670   13.116230    ( 0.0000,  0.0000,  0.0000)
  97 O      6.073101    7.653133   13.137697    ( 0.0000,  0.0000,  0.0000)
  98 Ti     4.089162    7.598427   13.837351    ( 0.0000,  0.0000,  0.0000)
  99 Ti     9.401398    9.527562   14.083228    ( 0.0000,  0.0000,  0.0000)
 100 Ti     1.862125    9.572240   14.627363    ( 0.0000,  0.0000,  0.0000)
 101 Ti     7.038913    7.596625   14.628325    ( 0.0000,  0.0000,  0.0000)
 102 O      2.349781    7.680410   14.682503    ( 0.0000,  0.0000,  0.0000)
 103 O      7.527859    9.502247   14.877312    ( 0.0000,  0.0000,  0.0000)
 104 O      0.238838    9.497696   15.504423    ( 0.0000,  0.0000,  0.0000)
 105 O      5.313696    7.458604   15.586442    ( 0.0000,  0.0000,  0.0000)
 106 O      8.955805    7.618832   14.090662    ( 0.0000,  0.0000,  0.0000)
 107 O      3.854823    9.551495   14.091506    ( 0.0000,  0.0000,  0.0000)
 108 V      4.394569    6.771045   17.066674    ( 0.0000,  0.0000,  0.0000)
 109 V      5.720513    3.942611   17.214164    ( 0.0000,  0.0000,  0.0000)
 110 O      4.980922    2.749595   18.033285    ( 0.0000,  0.0000,  0.0000)
 111 O      2.927747    5.941386   16.597201    ( 0.0000,  0.0000,  0.0000)
 112 O      5.442828    5.595284   17.908474    ( 0.0000,  0.0000,  0.0000)
 113 O      2.604131    1.913278   16.902212    ( 0.0000,  0.0000,  0.0000)
 114 O      4.041070    7.975231   18.046975    ( 0.0000,  0.0000,  0.0000)
 115 O      7.366191    3.639701   16.751647    ( 0.0000,  0.0000,  0.0000)
 116 H      1.929354    2.162199   17.559922    ( 0.0000,  0.0000,  0.0000)
 117 H      3.494124    2.158396   17.290156    ( 0.0000,  0.0000,  0.0000)

Unit cell:
           periodic     x           y           z      points  spacing
  1. axis:    yes   10.341746    0.000000    0.000000    54     0.1915
  2. axis:    yes   -0.000000   11.467000    0.000000    60     0.1911
  3. axis:    no     0.000000    0.000000   23.497201   125     0.1880

  Lengths:  10.341746  11.467000  23.497201
  Angles:   90.000000  90.000000  90.000000

Effective grid spacing dv^(1/3) = 0.1902

                     log10-error:    total        iterations:
           time      wfs    density  energy       fermi  poisson
iter:   1  19:21:36  -5.39   +inf  -971.166276    2             
iter:   2  19:22:32  -6.29  -4.33  -971.166258    1             
iter:   3  19:23:28  -5.85  -4.36  -971.166209    2             
iter:   4  19:24:24  -7.20  -4.64  -971.166207    2             
iter:   5  19:25:20  -7.32  -4.67  -971.166206    1             
iter:   6  19:26:15  -6.86  -4.70  -971.166199    2             
iter:   7  19:27:11  -7.61  -4.93  -971.166198    1             

Converged after 7 iterations.

Dipole moment: (-16.484615, 21.365820, -0.965169) |e|*Ang

Energy contributions relative to reference atoms: (reference = -1046916.965077)

Kinetic:       +682.446113
Potential:     -877.253157
External:        +0.000000
XC:            -784.163973
Entropy (-ST):   -0.000486
Local:           +7.805062
--------------------------
Free energy:   -971.166441
Extrapolated:  -971.166198

Fermi level: -0.63172

Showing only first 2 kpts
 Kpt  Band  Eigenvalues  Occupancy
  0   462     -1.70449    0.22222
  0   463     -1.70074    0.22222
  0   464      0.21887    0.00004
  0   465      0.38599    0.00001

  1   462     -1.72151    0.44444
  1   463     -1.69021    0.44443
  1   464      0.41164    0.00001
  1   465      0.52419    0.00000



Forces in eV/Ang:
  0 O    -1.82770    0.00511    1.56644
  1 O    -1.86579   -0.00232    1.55467
  2 Ti    3.87093    0.00387    2.03226
  3 Ti    3.85534   -0.01928    2.01438
  4 Ti   -1.95272   -0.02147   -1.64970
  5 Ti   -1.94076    0.00587   -1.88259
  6 O     0.89022    0.00602   -0.17296
  7 O     0.84462    0.03748   -0.17057
  8 O    -0.60613   -0.00665   -0.56108
  9 O    -0.65912    0.00607   -0.56042
 10 O    -0.29114    0.01336   -0.89238
 11 O    -0.24092    0.11168   -0.90958
 12 O     0.00149    0.00121    0.00481
 13 O    -0.00378    0.00070    0.00183
 14 Ti   -0.00529   -0.00002    0.00117
 15 Ti   -0.00504   -0.00008    0.00117
 16 Ti    0.00121    0.00170    0.00352
 17 Ti    0.00201   -0.00252    0.00867
 18 O    -0.00106   -0.00687   -0.00083
 19 O     0.00548   -0.00379   -0.00020
 20 O    -0.00055    0.00372    0.01139
 21 O    -0.00106    0.00054    0.00738
 22 O     0.00184   -0.00293   -0.00163
 23 O    -0.00039   -0.00329   -0.00054
 24 O    -0.00031    0.00222   -0.00280
 25 O     0.00494    0.00101    0.00133
 26 Ti    0.00209   -0.00289   -0.00534
 27 Ti    0.00000   -0.00578   -0.00124
 28 Ti    0.00120    0.00071   -0.00497
 29 Ti   -0.00371    0.00011   -0.01299
 30 O    -0.00010   -0.00459    0.00130
 31 O    -0.00580   -0.00536    0.00308
 32 O    -0.00058    0.00041    0.00703
 33 O     0.00756    0.00084    0.00481
 34 O     0.01042   -0.00330   -0.00454
 35 O    -0.00022    0.00002   -0.00141
 36 O    -1.83364    0.00023    1.54373
 37 O    -1.92360    0.00451    1.59599
 38 Ti    3.61299   -0.05660    1.75928
 39 Ti    3.90986   -0.00681    2.03378
 40 Ti   -1.97394   -0.00373   -1.43674
 41 Ti   -1.50378   -0.01970   -1.55311
 42 O     0.95233   -0.00699   -0.20501
 43 O     0.81353   -0.01259   -0.18904
 44 O    -0.67602   -0.03525   -0.61665
 45 O    -0.70603    0.01108   -0.58645
 46 O    -0.33947   -0.00221   -0.87517
 47 O    -0.19989   -0.00226   -0.89961
 48 O     0.00406    0.00348    0.00706
 49 O     0.00059    0.00143    0.00316
 50 Ti   -0.00079    0.00002   -0.00030
 51 Ti   -0.00037   -0.00127   -0.00328
 52 Ti   -0.00158    0.00024   -0.00096
 53 Ti   -0.00214    0.00017    0.00268
 54 O     0.00059   -0.00130    0.00023
 55 O     0.00399    0.00035   -0.00135
 56 O    -0.00419   -0.00008    0.00339
 57 O     0.00174   -0.00007   -0.00042
 58 O     0.00352   -0.00487   -0.00358
 59 O    -0.00018    0.00147    0.00299
 60 O    -0.00297    0.00009    0.00243
 61 O    -0.00178    0.00221    0.00111
 62 Ti   -0.00158   -0.00896   -0.00039
 63 Ti    0.00045    0.00240   -0.00531
 64 Ti   -0.00257   -0.00246   -0.00542
 65 Ti    0.00354   -0.00237   -0.00160
 66 O    -0.00480   -0.00576    0.00350
 67 O    -0.00169    0.00201    0.00558
 68 O     0.00647   -0.00065   -0.00056
 69 O     0.00044    0.00380   -0.01584
 70 O    -0.00345    0.00157   -0.00154
 71 O     0.00095   -0.00456   -0.00051
 72 O    -1.82893   -0.00375    1.56415
 73 O    -1.93361   -0.00919    1.60118
 74 Ti    3.60970    0.05370    1.76195
 75 Ti    3.89314    0.01833    2.03920
 76 Ti   -2.04836    0.03273   -1.87598
 77 Ti   -1.59274    0.01414   -1.92723
 78 O     0.95555   -0.00249   -0.18919
 79 O     0.83675   -0.07309   -0.15256
 80 O    -0.62703   -0.02465   -0.56291
 81 O    -0.68182   -0.01088   -0.51910
 82 O    -0.34344   -0.01012   -0.89215
 83 O    -0.23380   -0.11066   -0.89858
 84 O     0.00350    0.00083    0.00226
 85 O    -0.00523   -0.00068    0.00715
 86 Ti   -0.00556    0.00005   -0.00681
 87 Ti   -0.00387    0.00073   -0.00102
 88 Ti   -0.00254    0.00203    0.00115
 89 Ti    0.00110    0.00541    0.00266
 90 O     0.00123   -0.00088    0.00024
 91 O     0.00455   -0.00786    0.00071
 92 O     0.00478    0.00060    0.01460
 93 O     0.00397   -0.00096   -0.00314
 94 O    -0.00014    0.00266   -0.00092
 95 O     0.00062   -0.00083    0.00050
 96 O    -0.00304    0.00013    0.00249
 97 O     0.01006   -0.00469    0.00692
 98 Ti    0.00492    0.00808   -0.00143
 99 Ti   -0.00225    0.00746    0.00171
100 Ti    0.00205    0.00542   -0.00989
101 Ti   -0.00551    0.00887   -0.01415
102 O    -0.00748   -0.00239    0.00410
103 O    -0.00685   -0.00314    0.00598
104 O     0.00714   -0.00372    0.00936
105 O     0.00131   -0.00369    0.01030
106 O     0.00402    0.00252   -0.00521
107 O    -0.00470   -0.00280   -0.00140
108 V    -0.00128   -0.00100    0.00356
109 V     0.00522   -0.01032   -0.00266
110 O    -0.00566    0.00247    0.00307
111 O     0.00275    0.00416    0.00683
112 O    -0.00840    0.01153    0.00191
113 O    -0.01541    0.00451    0.00600
114 O     0.00255   -0.01557   -0.01405
115 O    -0.00056   -0.00464   -0.00662
116 H    -0.00543   -0.00461   -0.00153
117 H    -0.00840   -0.00481   -0.00298

Timing:                                      incl.     excl.
-------------------------------------------------------------------
Density initialized from wave functions:   254.850   254.848   0.3% |
 Symmetrize density:                         0.002     0.002   0.0% |
Forces:                                   1692.118  1692.118   2.1% ||
Hamiltonian:                                96.290     1.751   0.0% |
 Atomic:                                    24.393     0.604   0.0% |
  XC Correction:                            23.789    23.789   0.0% |
 Calculate atomic Hamiltonians:             45.568    45.568   0.1% |
 Communicate:                               10.042    10.042   0.0% |
 Initialize Hamiltonian:                     0.001     0.001   0.0% |
 Poisson:                                    0.105     0.105   0.0% |
 XC 3D grid:                                14.430    14.430   0.0% |
LCAO initialization:                       192.635     1.873   0.0% |
 LCAO eigensolver:                          67.815     0.099   0.0% |
  Calculate projections:                     0.000     0.000   0.0% |
  DenseAtomicCorrection:                     0.001     0.001   0.0% |
  Distribute overlap matrix:                 5.267     5.267   0.0% |
  Orbital Layouts:                          56.014    56.014   0.1% |
  Potential matrix:                          0.044     0.044   0.0% |
  Sum over cells:                            6.391     6.391   0.0% |
 LCAO to grid:                             117.315   117.315   0.1% |
 Set positions (LCAO WFS):                   5.631     4.695   0.0% |
  Basic WFS set positions:                   0.003     0.003   0.0% |
  Basis functions set positions:             0.001     0.001   0.0% |
  P tci:                                     0.007     0.007   0.0% |
  ST tci:                                    0.620     0.620   0.0% |
  mktci:                                     0.306     0.306   0.0% |
PWDescriptor:                                0.187     0.187   0.0% |
Redistribute:                                0.182     0.182   0.0% |
SCF-cycle:                               77796.706     1.879   0.0% |
 Davidson:                               73923.576 17680.364  22.0% |--------|
  Apply H:                               10823.896 10418.324  12.9% |----|
   HMM T:                                  405.572   405.572   0.5% |
  Subspace diag:                          8120.833     0.971   0.0% |
   calc_h_matrix:                         4826.310  1243.099   1.5% ||
    Apply H:                              3583.211  3437.603   4.3% |-|
     HMM T:                                145.608   145.608   0.2% |
   diagonalize:                           1048.916  1048.916   1.3% ||
   rotate_psi:                            2244.637  2244.637   2.8% ||
  calc. matrices:                        16599.450  9517.794  11.8% |----|
   Apply H:                               7081.656  6829.687   8.5% |--|
    HMM T:                                 251.969   251.969   0.3% |
  diagonalize:                           15807.869 15807.869  19.6% |-------|
  rotate_psi:                             4891.163  4891.163   6.1% |-|
 Density:                                 2356.155     0.033   0.0% |
  Atomic density matrices:                  15.289    15.289   0.0% |
  Mix:                                     482.291   482.291   0.6% |
  Multipole moments:                         0.464     0.464   0.0% |
  Pseudo density:                         1858.079  1858.052   2.3% ||
   Symmetrize density:                       0.027     0.027   0.0% |
 Hamiltonian:                              879.173    15.969   0.0% |
  Atomic:                                  222.320     4.239   0.0% |
   XC Correction:                          218.081   218.081   0.3% |
  Calculate atomic Hamiltonians:           415.788   415.788   0.5% |
  Communicate:                              92.414    92.414   0.1% |
  Poisson:                                   0.884     0.884   0.0% |
  XC 3D grid:                              131.797   131.797   0.2% |
 Orthonormalize:                           635.923     0.146   0.0% |
  calc_s_matrix:                            60.147    60.147   0.1% |
  inverse-cholesky:                         55.250    55.250   0.1% |
  projections:                             408.074   408.074   0.5% |
  rotate_psi_s:                            112.306   112.306   0.1% |
Set symmetry:                                0.001     0.001   0.0% |
Other:                                     469.965   469.965   0.6% |
-------------------------------------------------------------------
Total:                                             80502.935 100.0%

Memory usage: 1.36 GiB
Date: Sat May 25 19:27:24 2019
