
  ___ ___ ___ _ _ _  
 |   |   |_  | | | | 
 | | | | | . | | | | 
 |__ |  _|___|_____|  1.5.1
 |___|_|             

User:   siva@s83n14.grendel.cscaa.dk
Date:   Sat May 25 02:52:38 2019
Arch:   x86_64
Pid:    13081
Python: 3.6.3
gpaw:   /home/siva/gpaw-1.5.1/gpaw
_gpaw:  /home/siva/gpaw-1.5.1/build/bin.linux-x86_64-3.6/gpaw-python
ase:    /home/siva/env1.5/lib/python3.6/site-packages/ase (version 3.17.0)
numpy:  /home/siva/env1.5/lib/python3.6/site-packages/numpy (version 1.16.0)
scipy:  /home/siva/env1.5/lib/python3.6/site-packages/scipy (version 1.2.0)
units:  Angstrom and eV
cores:  28
Extra parameters: {'blacs': True}

Input parameters:
  basis: dzp
  kpts: [3 3 1]
  mode: {ecut: 500.0,
         gammacentered: False,
         name: pw}
  xc: PBE

System changes: positions, numbers, cell, pbc, initial_charges, initial_magmoms 

Initialize ...

O-setup:
  name: Oxygen
  id: 32ecd46bf208036f09c70b0ec9a88b78
  Z: 8
  valence: 6
  core: 2
  charge: 0.0
  file: /home/wido/sw/gpaw/basis/gpaw-setups-0.9.20000/O.PBE.gz
  cutoffs: 0.67(comp), 1.17(filt), 0.83(core), lmax=2
  valence states:
                energy  radius
    2s(2.00)   -23.961   0.688
    2p(4.00)    -9.029   0.598
    *s           3.251   0.688
    *p          18.182   0.598
    *d           0.000   0.619

  LCAO basis set for O:
    Name: dzp
    File: /home/wido/sw/gpaw/basis/gpaw-setups-0.9.20000/O.dzp.basis.gz
    Number of radial functions: 5
    Number of spherical harmonics: 13
      l=0, rc=4.3438 Bohr: 2s-sz confined orbital
      l=1, rc=5.3906 Bohr: 2p-sz confined orbital
      l=0, rc=2.2969 Bohr: 2s-dz split-valence wave
      l=1, rc=2.8906 Bohr: 2p-dz split-valence wave
      l=2, rc=5.3906 Bohr: d-type Gaussian polarization

Ti-setup:
  name: Titanium
  id: d282db07e62ae71292040bf25b25ccdd
  Z: 22
  valence: 12
  core: 10
  charge: 0.0
  file: /home/wido/sw/gpaw/basis/gpaw-setups-0.9.20000/Ti.PBE.gz
  cutoffs: 1.22(comp), 2.23(filt), 1.02(core), lmax=2
  valence states:
                energy  radius
    3s(2.00)   -62.623   1.270
    4s(2.00)    -4.466   1.270
    3p(6.00)   -38.862   1.058
    4p(0.00)    -1.466   1.058
    3d(2.00)    -4.258   1.058
    *d          22.953   1.058

  LCAO basis set for Ti:
    Name: dzp
    File: /home/wido/sw/gpaw/basis/gpaw-setups-0.9.20000/Ti.dzp.basis.gz
    Number of radial functions: 11
    Number of spherical harmonics: 29
      l=0, rc=3.4375 Bohr: 3s-sz confined orbital
      l=0, rc=9.9062 Bohr: 4s-sz confined orbital
      l=1, rc=3.8906 Bohr: 3p-sz confined orbital
      l=1, rc=13.1094 Bohr: 4p-sz confined orbital
      l=2, rc=6.6250 Bohr: 3d-sz confined orbital
      l=0, rc=2.1406 Bohr: 3s-dz split-valence wave
      l=0, rc=6.0156 Bohr: 4s-dz split-valence wave
      l=1, rc=2.3125 Bohr: 3p-dz split-valence wave
      l=1, rc=8.1094 Bohr: 4p-dz split-valence wave
      l=2, rc=3.8594 Bohr: 3d-dz split-valence wave
      l=1, rc=9.9062 Bohr: p-type Gaussian polarization

V-setup:
  name: Vanadium
  id: a8354638d66c808f8c867a10b63fd727
  Z: 23
  valence: 13
  core: 10
  charge: 0.0
  file: /home/wido/sw/gpaw/basis/gpaw-setups-0.9.20000/V.PBE.gz
  cutoffs: 1.19(comp), 2.14(filt), 0.96(core), lmax=2
  valence states:
                energy  radius
    3s(2.00)   -70.222   1.254
    4s(2.00)    -4.702   1.254
    3p(6.00)   -44.043   1.281
    4p(0.00)    -1.444   1.281
    3d(3.00)    -5.164   1.169
    *d          22.047   1.169

  LCAO basis set for V:
    Name: dzp
    File: /home/wido/sw/gpaw/basis/gpaw-setups-0.9.20000/V.dzp.basis.gz
    Number of radial functions: 11
    Number of spherical harmonics: 29
      l=0, rc=3.2656 Bohr: 3s-sz confined orbital
      l=0, rc=9.5312 Bohr: 4s-sz confined orbital
      l=1, rc=3.6719 Bohr: 3p-sz confined orbital
      l=1, rc=12.8750 Bohr: 4p-sz confined orbital
      l=2, rc=6.0938 Bohr: 3d-sz confined orbital
      l=0, rc=2.0625 Bohr: 3s-dz split-valence wave
      l=0, rc=5.7656 Bohr: 4s-dz split-valence wave
      l=1, rc=2.4062 Bohr: 3p-dz split-valence wave
      l=1, rc=7.8906 Bohr: 4p-dz split-valence wave
      l=2, rc=3.6562 Bohr: 3d-dz split-valence wave
      l=1, rc=9.5312 Bohr: p-type Gaussian polarization

H-setup:
  name: Hydrogen
  id: d65de229564ff8ea4db303e23b6d1ecf
  Z: 1
  valence: 1
  core: 0
  charge: 0.0
  file: /home/wido/sw/gpaw/basis/gpaw-setups-0.9.20000/H.PBE.gz
  cutoffs: 0.48(comp), 0.85(filt), 0.53(core), lmax=2
  valence states:
                energy  radius
    1s(1.00)    -6.494   0.476
    *s          20.717   0.476
    *p           0.000   0.476

  LCAO basis set for H:
    Name: dzp
    File: /home/wido/sw/gpaw/basis/gpaw-setups-0.9.20000/H.dzp.basis.gz
    Number of radial functions: 3
    Number of spherical harmonics: 5
      l=0, rc=6.4219 Bohr: 1s-sz confined orbital
      l=0, rc=3.6094 Bohr: 1s-dz split-valence wave
      l=1, rc=6.4219 Bohr: p-type Gaussian polarization

Reference energy: -1048982.797703

Spin-paired calculation

Occupation numbers:
  Fermi-Dirac: width=0.1000 eV

Convergence criteria:
  Maximum total energy change: 0.0005 eV / electron
  Maximum integral of absolute density change: 0.0001 electrons
  Maximum integral of absolute eigenstate change: 4e-08 eV^2
  Maximum number of iterations: 333

Symmetries present (total): 1

  ( 1  0  0)
  ( 0  1  0)
  ( 0  0  1)

9 k-points: 3 x 3 x 1 Monkhorst-Pack grid
5 k-points in the irreducible part of the Brillouin zone
       k-points in crystal coordinates                weights
   0:     0.00000000    0.00000000    0.00000000          1/9
   1:     0.00000000    0.33333333    0.00000000          2/9
   2:     0.33333333   -0.33333333    0.00000000          2/9
   3:     0.33333333    0.00000000    0.00000000          2/9
   4:     0.33333333    0.33333333    0.00000000          2/9

Wave functions: Plane wave expansion
  Cutoff energy: 500.000 eV
  Number of coefficients (min, max): 70673, 70768
  Pulay-stress correction: 0.000000 eV/Ang^3 (de/decut=0.000000)
  Using FFTW library
  ScaLapack parameters: grid=1x1, blocksize=None
  Wavefunction extrapolation:
    Improved wavefunction reuse through dual PAW basis 

Eigensolver
   Davidson(niter=2, smin=None, normalize=True) 

Densities:
  Coarse grid: 54*60*125 grid
  Fine grid: 108*120*250 grid
  Total Charge: 0.000000 

Density mixing:
  Method: separate
  Backend: pulay
  Linear mixing parameter: 0.05
  Mixing with 5 old densities
  Damping of long wave oscillations: 50 

Hamiltonian:
  XC and Coulomb potentials evaluated on a 108*120*250 grid
  Using the PBE Exchange-Correlation functional
 

XC parameters: PBE with 2 nearest neighbor stencil

Memory estimate:
  Process memory now: 274.62 MiB
  Calculator: 3754.76 MiB
    Density: 8.90 MiB
      Arrays: 2.89 MiB
      Localized functions: 4.89 MiB
      Mixer: 1.11 MiB
    Hamiltonian: 2.03 MiB
      Arrays: 1.89 MiB
      XC: 0.00 MiB
      Poisson: 0.00 MiB
      vbar: 0.14 MiB
    Wavefunctions: 3743.83 MiB
      Arrays psit_nG: 3055.93 MiB
      Eigensolver: 665.48 MiB
      Projections: 2.67 MiB
      Projectors: 2.80 MiB
      PW-descriptor: 16.94 MiB

Total number of cores used: 28
Domain decomposition: 2 x 2 x 7

Number of atoms: 121
Number of atomic orbitals: 2149
Number of bands in calculation: 566
Bands to converge: occupied states only
Number of valence electrons: 936

... initialized

Initializing position-dependent things.

Density initialized from atomic densities
Creating initial wave functions:
  566 bands from LCAO basis set

                                                
                                                
                                                
                                                
                                                
                                                
                    OHH  O                      
                          V O                   
             O          O     O                 
                  Ti O   Oi     O               
             H    O    OV   OOTi     Ti         
           O  OO H                O             
               Ti     Oi   O O                  
         O     O    OTi    Ti    OTi            
             Tii    Ti    OOO   O               
             OO   OO    O Ti    Tii             
          O Ti     Oi   TiO  O O     O          
            O   O      Ti     TiO               
                TiO      O  O  O   O Ti         
         Ti   O O    O Oi    Ti     O           
         O     Ti    Ti    OTi    Ti            
             O O    O O         O               
                    Ti     Oi     O             
             Oi     O    O      Ti              
           O     OTi    Ti     O                
          Ti          O      O                  
               O                                
                                                
                                                
                                                
                                                

Positions:
   0 O      8.476572    1.911173    6.000000    ( 0.0000,  0.0000,  0.0000)
   1 O      3.305699    0.000000    6.000000    ( 0.0000,  0.0000,  0.0000)
   2 Ti     1.412752    0.000000    6.752957    ( 0.0000,  0.0000,  0.0000)
   3 Ti     6.583625    1.911173    6.752957    ( 0.0000,  0.0000,  0.0000)
   4 Ti     9.522250    1.911173    7.640878    ( 0.0000,  0.0000,  0.0000)
   5 Ti     4.351376    0.000000    7.640878    ( 0.0000,  0.0000,  0.0000)
   6 O      9.861551    0.000000    7.505914    ( 0.0000,  0.0000,  0.0000)
   7 O      4.690678    1.911173    7.505914    ( 0.0000,  0.0000,  0.0000)
   8 O      7.629303    1.911173    8.393834    ( 0.0000,  0.0000,  0.0000)
   9 O      2.458430    0.000000    8.393834    ( 0.0000,  0.0000,  0.0000)
  10 O      6.244323    0.000000    6.887921    ( 0.0000,  0.0000,  0.0000)
  11 O      1.073450    1.911173    6.887921    ( 0.0000,  0.0000,  0.0000)
  12 O      9.821102    1.911091    9.593715    ( 0.0000,  0.0000,  0.0000)
  13 O      4.640004   11.462914    9.578938    ( 0.0000,  0.0000,  0.0000)
  14 Ti     2.751676   11.468696   10.385956    ( 0.0000,  0.0000,  0.0000)
  15 Ti     7.969562    1.892043   10.377124    ( 0.0000,  0.0000,  0.0000)
  16 Ti     0.503116    1.928261   11.187064    ( 0.0000,  0.0000,  0.0000)
  17 Ti     5.658449    0.002641   11.127557    ( 0.0000,  0.0000,  0.0000)
  18 O      0.916946    0.005019   11.093523    ( 0.0000,  0.0000,  0.0000)
  19 O      6.084682    1.908109   11.082401    ( 0.0000,  0.0000,  0.0000)
  20 O      9.046581    1.915430   11.950956    ( 0.0000,  0.0000,  0.0000)
  21 O      3.862471    0.017598   11.941814    ( 0.0000,  0.0000,  0.0000)
  22 O      7.569752   11.465733   10.448233    ( 0.0000,  0.0000,  0.0000)
  23 O      2.393158    1.923448   10.448931    ( 0.0000,  0.0000,  0.0000)
  24 O      0.961602    1.933978   13.149269    ( 0.0000,  0.0000,  0.0000)
  25 O      6.108031   11.464185   13.058489    ( 0.0000,  0.0000,  0.0000)
  26 Ti     4.179060   11.419425   13.991684    ( 0.0000,  0.0000,  0.0000)
  27 Ti     9.452777    1.863382   14.022914    ( 0.0000,  0.0000,  0.0000)
  28 Ti     1.895730    1.937863   14.749896    ( 0.0000,  0.0000,  0.0000)
  29 Ti     6.990868    0.010326   14.595629    ( 0.0000,  0.0000,  0.0000)
  30 O      2.385574    0.031068   14.773610    ( 0.0000,  0.0000,  0.0000)
  31 O      7.558560    1.864836   14.787784    ( 0.0000,  0.0000,  0.0000)
  32 O      0.207554    1.912418   15.492170    ( 0.0000,  0.0000,  0.0000)
  33 O      5.377291   11.459840   15.438734    ( 0.0000,  0.0000,  0.0000)
  34 O      9.061408    0.009524   13.949288    ( 0.0000,  0.0000,  0.0000)
  35 O      3.847821    1.949073   13.969067    ( 0.0000,  0.0000,  0.0000)
  36 O      8.476572    5.733518    6.000000    ( 0.0000,  0.0000,  0.0000)
  37 O      3.305699    3.822345    6.000000    ( 0.0000,  0.0000,  0.0000)
  38 Ti     1.412752    3.822345    6.752957    ( 0.0000,  0.0000,  0.0000)
  39 Ti     6.583625    5.733518    6.752957    ( 0.0000,  0.0000,  0.0000)
  40 Ti     9.522250    5.733518    7.640878    ( 0.0000,  0.0000,  0.0000)
  41 Ti     4.351376    3.822345    7.640878    ( 0.0000,  0.0000,  0.0000)
  42 O      9.861551    3.822345    7.505914    ( 0.0000,  0.0000,  0.0000)
  43 O      4.690678    5.733518    7.505914    ( 0.0000,  0.0000,  0.0000)
  44 O      7.629303    5.733518    8.393834    ( 0.0000,  0.0000,  0.0000)
  45 O      2.458430    3.822345    8.393834    ( 0.0000,  0.0000,  0.0000)
  46 O      6.244323    3.822345    6.887921    ( 0.0000,  0.0000,  0.0000)
  47 O      1.073450    5.733518    6.887921    ( 0.0000,  0.0000,  0.0000)
  48 O      9.806112    5.735267    9.579741    ( 0.0000,  0.0000,  0.0000)
  49 O      4.646702    3.818263    9.611871    ( 0.0000,  0.0000,  0.0000)
  50 Ti     2.780503    3.812067   10.317642    ( 0.0000,  0.0000,  0.0000)
  51 Ti     7.933508    5.735767   10.393735    ( 0.0000,  0.0000,  0.0000)
  52 Ti     0.516597    5.732005   11.111118    ( 0.0000,  0.0000,  0.0000)
  53 Ti     5.728874    3.807344   11.211049    ( 0.0000,  0.0000,  0.0000)
  54 O      0.906959    3.822832   11.080572    ( 0.0000,  0.0000,  0.0000)
  55 O      6.090685    5.733399   11.111817    ( 0.0000,  0.0000,  0.0000)
  56 O      9.033462    5.735630   11.943058    ( 0.0000,  0.0000,  0.0000)
  57 O      3.839042    3.849398   11.946834    ( 0.0000,  0.0000,  0.0000)
  58 O      7.551834    3.818539   10.458696    ( 0.0000,  0.0000,  0.0000)
  59 O      2.384911    5.737354   10.440032    ( 0.0000,  0.0000,  0.0000)
  60 O      0.925393    5.743851   13.058363    ( 0.0000,  0.0000,  0.0000)
  61 O      6.037647    3.744529   13.202744    ( 0.0000,  0.0000,  0.0000)
  62 Ti     4.154946    3.792713   13.814054    ( 0.0000,  0.0000,  0.0000)
  63 Ti     9.373947    5.732958   13.977739    ( 0.0000,  0.0000,  0.0000)
  64 Ti     1.834706    5.742127   14.591243    ( 0.0000,  0.0000,  0.0000)
  65 Ti     7.201403    3.792309   14.785023    ( 0.0000,  0.0000,  0.0000)
  66 O      2.365523    3.867067   14.793929    ( 0.0000,  0.0000,  0.0000)
  67 O      7.538909    5.734706   14.614660    ( 0.0000,  0.0000,  0.0000)
  68 O      0.196756    5.734839   15.425494    ( 0.0000,  0.0000,  0.0000)
  69 O      5.179380    4.041661   15.509051    ( 0.0000,  0.0000,  0.0000)
  70 O      8.977139    3.803138   13.989509    ( 0.0000,  0.0000,  0.0000)
  71 O      3.803611    5.767962   13.925234    ( 0.0000,  0.0000,  0.0000)
  72 O      8.476572    9.555862    6.000000    ( 0.0000,  0.0000,  0.0000)
  73 O      3.305699    7.644690    6.000000    ( 0.0000,  0.0000,  0.0000)
  74 Ti     1.412752    7.644690    6.752957    ( 0.0000,  0.0000,  0.0000)
  75 Ti     6.583625    9.555862    6.752957    ( 0.0000,  0.0000,  0.0000)
  76 Ti     9.522250    9.555862    7.640878    ( 0.0000,  0.0000,  0.0000)
  77 Ti     4.351376    7.644690    7.640878    ( 0.0000,  0.0000,  0.0000)
  78 O      9.861551    7.644690    7.505914    ( 0.0000,  0.0000,  0.0000)
  79 O      4.690678    9.555862    7.505914    ( 0.0000,  0.0000,  0.0000)
  80 O      7.629303    9.555862    8.393834    ( 0.0000,  0.0000,  0.0000)
  81 O      2.458430    7.644690    8.393834    ( 0.0000,  0.0000,  0.0000)
  82 O      6.244323    7.644690    6.887921    ( 0.0000,  0.0000,  0.0000)
  83 O      1.073450    9.555862    6.887921    ( 0.0000,  0.0000,  0.0000)
  84 O      9.819545    9.559357    9.594717    ( 0.0000,  0.0000,  0.0000)
  85 O      4.650799    7.641369    9.609978    ( 0.0000,  0.0000,  0.0000)
  86 Ti     2.774646    7.656484   10.322818    ( 0.0000,  0.0000,  0.0000)
  87 Ti     7.979067    9.570934   10.372786    ( 0.0000,  0.0000,  0.0000)
  88 Ti     0.510551    9.544239   11.197815    ( 0.0000,  0.0000,  0.0000)
  89 Ti     5.719666    7.672803   11.201872    ( 0.0000,  0.0000,  0.0000)
  90 O      0.910015    7.651812   11.079241    ( 0.0000,  0.0000,  0.0000)
  91 O      6.082760    9.555961   11.086126    ( 0.0000,  0.0000,  0.0000)
  92 O      9.049017    9.555118   11.951633    ( 0.0000,  0.0000,  0.0000)
  93 O      3.843068    7.656068   11.943736    ( 0.0000,  0.0000,  0.0000)
  94 O      7.553583    7.650698   10.458143    ( 0.0000,  0.0000,  0.0000)
  95 O      2.394563    9.554515   10.447026    ( 0.0000,  0.0000,  0.0000)
  96 O      0.970780    9.553755   13.144062    ( 0.0000,  0.0000,  0.0000)
  97 O      6.036914    7.690659   13.213974    ( 0.0000,  0.0000,  0.0000)
  98 Ti     4.181566    7.609429   13.819741    ( 0.0000,  0.0000,  0.0000)
  99 Ti     9.466034    9.626946   14.011284    ( 0.0000,  0.0000,  0.0000)
 100 Ti     1.898344    9.518787   14.774280    ( 0.0000,  0.0000,  0.0000)
 101 Ti     7.228015    7.709089   14.783087    ( 0.0000,  0.0000,  0.0000)
 102 O      2.359846    7.641412   14.808166    ( 0.0000,  0.0000,  0.0000)
 103 O      7.561460    9.619740   14.784752    ( 0.0000,  0.0000,  0.0000)
 104 O      0.209228    9.590028   15.482890    ( 0.0000,  0.0000,  0.0000)
 105 O      5.178636    7.585044   15.555089    ( 0.0000,  0.0000,  0.0000)
 106 O      8.984936    7.676924   13.993809    ( 0.0000,  0.0000,  0.0000)
 107 O      3.845536    9.562809   13.947424    ( 0.0000,  0.0000,  0.0000)
 108 V      5.700818    4.139036   17.182230    ( 0.0000,  0.0000,  0.0000)
 109 V      5.765691    7.438035   17.198122    ( 0.0000,  0.0000,  0.0000)
 110 O      2.607312    1.880449   16.936224    ( 0.0000,  0.0000,  0.0000)
 111 O      5.395502    5.786928   17.852667    ( 0.0000,  0.0000,  0.0000)
 112 O      2.809793    9.751155   16.775823    ( 0.0000,  0.0000,  0.0000)
 113 O      7.360465    3.820867   16.733875    ( 0.0000,  0.0000,  0.0000)
 114 O      5.130387    8.664253   18.060333    ( 0.0000,  0.0000,  0.0000)
 115 O      4.947305    2.978915   18.047796    ( 0.0000,  0.0000,  0.0000)
 116 O      7.435273    7.643272   16.718484    ( 0.0000,  0.0000,  0.0000)
 117 H      3.627068    9.322592   17.177388    ( 0.0000,  0.0000,  0.0000)
 118 H      2.893437   10.710904   16.996195    ( 0.0000,  0.0000,  0.0000)
 119 H      3.452335    2.287327   17.317103    ( 0.0000,  0.0000,  0.0000)
 120 H      1.876916    2.214042   17.505770    ( 0.0000,  0.0000,  0.0000)

Unit cell:
           periodic     x           y           z      points  spacing
  1. axis:    yes   10.341746    0.000000    0.000000    54     0.1915
  2. axis:    yes   -0.000000   11.467000    0.000000    60     0.1911
  3. axis:    no     0.000000    0.000000   23.497201   125     0.1880

  Lengths:  10.341746  11.467000  23.497201
  Angles:   90.000000  90.000000  90.000000

Effective grid spacing dv^(1/3) = 0.1902

                     log10-error:    total        iterations:
           time      wfs    density  energy       fermi  poisson
iter:   1  02:56:55  -0.12   +inf  -1123.169285    8             
iter:   2  02:57:52  -1.04  -0.96  -1075.894637    2             
iter:   3  02:58:49  +0.44  -1.00  -981.030888    5             
iter:   4  02:59:45  -0.97  -1.35  -992.918982    4             
iter:   5  03:00:42  -1.06  -1.29  -1011.882233    3             
iter:   6  03:01:39  -0.09  -1.25  -1001.651645    5             
iter:   7  03:02:36  -0.72  -1.65  -998.716519    4             
iter:   8  03:03:33  -1.82  -1.64  -992.216189    2             
iter:   9  03:04:30  -1.00  -1.74  -985.851665    3             
iter:  10  03:05:27  -1.91  -2.12  -986.619941    3             
iter:  11  03:06:24  -2.63  -2.12  -986.591071    2             
iter:  12  03:07:21  -2.02  -2.21  -986.022222    2             
iter:  13  03:08:17  -2.56  -2.32  -986.055888    2             
iter:  14  03:09:14  -2.77  -2.38  -985.883722    3             
iter:  15  03:10:11  -2.62  -2.52  -985.859656    2             
iter:  16  03:11:08  -3.62  -2.64  -985.853029    3             
iter:  17  03:12:05  -3.38  -2.70  -985.850094    3             
iter:  18  03:13:02  -3.61  -2.98  -985.856956    2             
iter:  19  03:13:59  -4.46  -3.07  -985.847595    2             
iter:  20  03:14:56  -4.45  -3.13  -985.850164    2             
iter:  21  03:15:53  -4.37  -3.39  -985.849242    2             
iter:  22  03:16:50  -4.41  -3.49  -985.849120    2             
iter:  23  03:17:47  -5.15  -3.50  -985.847931    2             
iter:  24  03:18:44  -5.55  -3.58  -985.847857    1             
iter:  25  03:19:41  -5.72  -3.61  -985.847767    1             
iter:  26  03:20:38  -5.41  -3.65  -985.847824    2             
iter:  27  03:21:35  -6.33  -3.70  -985.847742    1             
iter:  28  03:22:32  -5.05  -3.73  -985.848138    2             
iter:  29  03:23:29  -5.59  -3.92  -985.847843    2             
iter:  30  03:24:26  -6.51  -4.16  -985.847807    2             
iter:  31  03:25:23  -6.07  -4.26  -985.847806    2             
iter:  32  03:26:20  -6.77  -4.51  -985.847803    1             
iter:  33  03:27:17  -7.59  -4.54  -985.847801    1             

Converged after 33 iterations.

Dipole moment: (-16.697670, -1.951718, -0.772979) |e|*Ang

Energy contributions relative to reference atoms: (reference = -1048982.797703)

Kinetic:       +709.660963
Potential:     -903.668091
External:        +0.000000
XC:            -799.737570
Entropy (-ST):   -0.000516
Local:           +7.897155
--------------------------
Free energy:   -985.848059
Extrapolated:  -985.847801

Fermi level: -0.55480

Showing only first 2 kpts
 Kpt  Band  Eigenvalues  Occupancy
  0   466     -1.62128    0.22222
  0   467     -1.61652    0.22222
  0   468      0.29407    0.00005
  0   469      0.43631    0.00001

  1   466     -1.63354    0.44444
  1   467     -1.60633    0.44443
  1   468      0.48504    0.00001
  1   469      0.57770    0.00001



Forces in eV/Ang:
  0 O    -1.88667    0.00664    1.52895
  1 O    -1.93091   -0.00026    1.51381
  2 Ti    3.84372   -0.00341    1.98262
  3 Ti    3.83830   -0.01978    1.97117
  4 Ti   -1.89835   -0.04261   -1.82689
  5 Ti   -1.87572   -0.00190   -1.95544
  6 O     0.89021    0.00707   -0.20770
  7 O     0.85140    0.07043   -0.19676
  8 O    -0.60009    0.00974   -0.59228
  9 O    -0.68254    0.01630   -0.61752
 10 O    -0.26737   -0.00006   -0.86420
 11 O    -0.22810    0.11538   -0.92929
 12 O    -0.16600   -0.00231    0.01056
 13 O    -0.19673    0.00334   -0.00959
 14 Ti    0.02411    0.01162   -0.10549
 15 Ti   -0.02940    0.03706   -0.07864
 16 Ti    0.09945   -0.01188    0.05527
 17 Ti    0.10523    0.00239    0.06595
 18 O     0.15297    0.00159   -0.03628
 19 O     0.18576   -0.01941   -0.07979
 20 O     0.04928    0.00769    0.18014
 21 O     0.01073    0.00215    0.08593
 22 O     0.01210   -0.00162    0.08066
 23 O     0.01235   -0.02405    0.11270
 24 O    -0.20396    0.01648   -0.16363
 25 O    -0.11646    0.01071   -0.01270
 26 Ti    0.01880    0.10641   -0.17676
 27 Ti   -0.08061    0.09524   -0.14428
 28 Ti    0.21306   -0.00120    0.04865
 29 Ti    0.17735    0.00050   -0.00718
 30 O     0.04061   -0.11032   -0.07632
 31 O     0.10137    0.02327   -0.00605
 32 O    -0.06058   -0.00040    0.27078
 33 O    -0.03483    0.01476    0.05483
 34 O    -0.11668    0.01028    0.13098
 35 O    -0.25910   -0.12594    0.24933
 36 O    -1.89674   -0.00030    1.52515
 37 O    -1.94300    0.00473    1.57485
 38 Ti    3.61441   -0.06807    1.73645
 39 Ti    3.87764    0.00122    2.00001
 40 Ti   -2.01055    0.00294   -1.97063
 41 Ti   -1.48625   -0.03358   -1.67261
 42 O     0.95877    0.01068   -0.21535
 43 O     0.81266   -0.00710   -0.18367
 44 O    -0.66218    0.00052   -0.66174
 45 O    -0.67402    0.02126   -0.68005
 46 O    -0.33093    0.00118   -0.88179
 47 O    -0.19140   -0.00554   -0.85009
 48 O    -0.16770    0.00316    0.00625
 49 O    -0.14647   -0.00013    0.00060
 50 Ti   -0.03494    0.02541    0.03087
 51 Ti    0.02079   -0.00183   -0.12005
 52 Ti    0.02801    0.01033    0.09654
 53 Ti   -0.01349    0.02537    0.07015
 54 O     0.18690    0.03217   -0.10011
 55 O     0.16846    0.01411    0.03281
 56 O     0.05993    0.00349    0.06809
 57 O     0.02222    0.01631   -0.01720
 58 O     0.02998   -0.00333    0.11369
 59 O     0.02839   -0.00681   -0.00896
 60 O    -0.09928    0.00759   -0.04110
 61 O    -0.01245    0.00483   -0.19744
 62 Ti   -0.04160    0.08804    0.10783
 63 Ti    0.04249    0.00909   -0.17574
 64 Ti    0.17230    0.03042    0.00038
 65 Ti   -0.11089    0.04094    0.00970
 66 O     0.02999    0.00755   -0.04115
 67 O    -0.07354    0.04352    0.31249
 68 O    -0.05473    0.00216    0.04456
 69 O     0.12184   -0.00203    0.16505
 70 O    -0.08627   -0.04765    0.22901
 71 O    -0.22835   -0.12015    0.02823
 72 O    -1.89218   -0.00553    1.52526
 73 O    -1.93766   -0.00712    1.57483
 74 Ti    3.62209    0.07407    1.75037
 75 Ti    3.83971    0.01852    1.96369
 76 Ti   -1.87908    0.04011   -1.79759
 77 Ti   -1.51006    0.03289   -1.69749
 78 O     0.95644   -0.00973   -0.21625
 79 O     0.85193   -0.07902   -0.19752
 80 O    -0.61521   -0.01089   -0.60608
 81 O    -0.65085    0.00191   -0.65887
 82 O    -0.32763   -0.00078   -0.87737
 83 O    -0.22950   -0.10939   -0.93365
 84 O    -0.14921    0.00453    0.01294
 85 O    -0.16848    0.00002   -0.02298
 86 Ti   -0.01061   -0.01189    0.02520
 87 Ti   -0.04927   -0.02352   -0.06898
 88 Ti    0.10177    0.01945    0.03379
 89 Ti    0.00996   -0.03352    0.07906
 90 O     0.18589   -0.03840   -0.09879
 91 O     0.19520    0.06042   -0.07223
 92 O     0.05239    0.00313    0.18030
 93 O     0.01902    0.00824   -0.00492
 94 O     0.02548    0.00466    0.10135
 95 O     0.00463    0.00991    0.06124
 96 O    -0.22141    0.00070   -0.12172
 97 O     0.02241    0.01283   -0.21566
 98 Ti   -0.09418    0.08245    0.13865
 99 Ti   -0.08853   -0.09181   -0.13888
100 Ti    0.23207    0.09934    0.07152
101 Ti   -0.11264   -0.07366    0.00230
102 O     0.04156   -0.05885    0.05569
103 O     0.11755   -0.00496   -0.04377
104 O    -0.07069    0.01334    0.23875
105 O     0.19505   -0.08556    0.03477
106 O    -0.07595    0.05040    0.21658
107 O    -0.26205   -0.05760    0.11691
108 V    -0.06393   -0.11579    0.06226
109 V    -0.01742    0.14838    0.05252
110 O     0.10515    0.32297    0.32910
111 O     0.03901    0.04272    0.06592
112 O     0.41696    0.23327    0.32670
113 O    -0.07575    0.00292    0.00879
114 O     0.09780   -0.30534   -0.05662
115 O     0.12437    0.17747   -0.14938
116 O    -0.16953   -0.01157   -0.03642
117 H    -0.33567    0.15129   -0.15396
118 H    -0.03727   -0.40676   -0.09709
119 H    -0.28642   -0.20909   -0.16592
120 H     0.26778   -0.14782   -0.22315

System changes: positions 

Initializing position-dependent things.

Density initialized from wave functions
                                                
                                                
                                                
                                                
                                                
                                                
                    OHH  O                      
                          V O                   
             O          O     O                 
                  Ti O   Oi     O               
             H    O    OV   OOTi     Ti         
           O  OO H                O             
               Ti     Oi   O O                  
         O     O    OTi    Ti    OTi            
             Tii    Ti    OOO   O               
             OO   OO    O Ti    Tii             
          O Ti     Oi   TiO  O O     O          
            O   O      Ti     TiO               
                TiO      O  O  O   O Ti         
         Ti   O O    O Oi    Ti     O           
         O     Ti    Ti    OTi    Ti            
             O O    O O         O               
                    Ti     Oi     O             
             Oi     O    O      Ti              
           O     OTi    Ti     O                
          Ti          O      O                  
               O                                
                                                
                                                
                                                
                                                

Positions:
   0 O      8.476572    1.911173    6.000000    ( 0.0000,  0.0000,  0.0000)
   1 O      3.305699    0.000000    6.000000    ( 0.0000,  0.0000,  0.0000)
   2 Ti     1.412752    0.000000    6.752957    ( 0.0000,  0.0000,  0.0000)
   3 Ti     6.583625    1.911173    6.752957    ( 0.0000,  0.0000,  0.0000)
   4 Ti     9.522250    1.911173    7.640878    ( 0.0000,  0.0000,  0.0000)
   5 Ti     4.351376    0.000000    7.640878    ( 0.0000,  0.0000,  0.0000)
   6 O      9.861551    0.000000    7.505914    ( 0.0000,  0.0000,  0.0000)
   7 O      4.690678    1.911173    7.505914    ( 0.0000,  0.0000,  0.0000)
   8 O      7.629303    1.911173    8.393834    ( 0.0000,  0.0000,  0.0000)
   9 O      2.458430    0.000000    8.393834    ( 0.0000,  0.0000,  0.0000)
  10 O      6.244323    0.000000    6.887921    ( 0.0000,  0.0000,  0.0000)
  11 O      1.073450    1.911173    6.887921    ( 0.0000,  0.0000,  0.0000)
  12 O      9.818730    1.911058    9.593866    ( 0.0000,  0.0000,  0.0000)
  13 O      4.637194   11.462962    9.578801    ( 0.0000,  0.0000,  0.0000)
  14 Ti     2.752021   11.468862   10.384449    ( 0.0000,  0.0000,  0.0000)
  15 Ti     7.969142    1.892573   10.376001    ( 0.0000,  0.0000,  0.0000)
  16 Ti     0.504537    1.928091   11.187854    ( 0.0000,  0.0000,  0.0000)
  17 Ti     5.659952    0.002675   11.128499    ( 0.0000,  0.0000,  0.0000)
  18 O      0.919132    0.005042   11.093004    ( 0.0000,  0.0000,  0.0000)
  19 O      6.087335    1.907832   11.081261    ( 0.0000,  0.0000,  0.0000)
  20 O      9.047285    1.915540   11.953530    ( 0.0000,  0.0000,  0.0000)
  21 O      3.862624    0.017629   11.943041    ( 0.0000,  0.0000,  0.0000)
  22 O      7.569925   11.465710   10.449385    ( 0.0000,  0.0000,  0.0000)
  23 O      2.393335    1.923104   10.450541    ( 0.0000,  0.0000,  0.0000)
  24 O      0.958688    1.934214   13.146932    ( 0.0000,  0.0000,  0.0000)
  25 O      6.106367   11.464338   13.058307    ( 0.0000,  0.0000,  0.0000)
  26 Ti     4.179329   11.420945   13.989159    ( 0.0000,  0.0000,  0.0000)
  27 Ti     9.451625    1.864742   14.020853    ( 0.0000,  0.0000,  0.0000)
  28 Ti     1.898773    1.937846   14.750591    ( 0.0000,  0.0000,  0.0000)
  29 Ti     6.993402    0.010334   14.595526    ( 0.0000,  0.0000,  0.0000)
  30 O      2.386154    0.029492   14.772520    ( 0.0000,  0.0000,  0.0000)
  31 O      7.560008    1.865169   14.787698    ( 0.0000,  0.0000,  0.0000)
  32 O      0.206689    1.912413   15.496038    ( 0.0000,  0.0000,  0.0000)
  33 O      5.376793   11.460050   15.439517    ( 0.0000,  0.0000,  0.0000)
  34 O      9.059741    0.009671   13.951160    ( 0.0000,  0.0000,  0.0000)
  35 O      3.844119    1.947274   13.972629    ( 0.0000,  0.0000,  0.0000)
  36 O      8.476572    5.733518    6.000000    ( 0.0000,  0.0000,  0.0000)
  37 O      3.305699    3.822345    6.000000    ( 0.0000,  0.0000,  0.0000)
  38 Ti     1.412752    3.822345    6.752957    ( 0.0000,  0.0000,  0.0000)
  39 Ti     6.583625    5.733518    6.752957    ( 0.0000,  0.0000,  0.0000)
  40 Ti     9.522250    5.733518    7.640878    ( 0.0000,  0.0000,  0.0000)
  41 Ti     4.351376    3.822345    7.640878    ( 0.0000,  0.0000,  0.0000)
  42 O      9.861551    3.822345    7.505914    ( 0.0000,  0.0000,  0.0000)
  43 O      4.690678    5.733518    7.505914    ( 0.0000,  0.0000,  0.0000)
  44 O      7.629303    5.733518    8.393834    ( 0.0000,  0.0000,  0.0000)
  45 O      2.458430    3.822345    8.393834    ( 0.0000,  0.0000,  0.0000)
  46 O      6.244323    3.822345    6.887921    ( 0.0000,  0.0000,  0.0000)
  47 O      1.073450    5.733518    6.887921    ( 0.0000,  0.0000,  0.0000)
  48 O      9.803717    5.735312    9.579830    ( 0.0000,  0.0000,  0.0000)
  49 O      4.644609    3.818261    9.611879    ( 0.0000,  0.0000,  0.0000)
  50 Ti     2.780004    3.812430   10.318083    ( 0.0000,  0.0000,  0.0000)
  51 Ti     7.933805    5.735741   10.392020    ( 0.0000,  0.0000,  0.0000)
  52 Ti     0.516997    5.732153   11.112497    ( 0.0000,  0.0000,  0.0000)
  53 Ti     5.728681    3.807706   11.212051    ( 0.0000,  0.0000,  0.0000)
  54 O      0.909629    3.823292   11.079142    ( 0.0000,  0.0000,  0.0000)
  55 O      6.093091    5.733601   11.112286    ( 0.0000,  0.0000,  0.0000)
  56 O      9.034319    5.735680   11.944031    ( 0.0000,  0.0000,  0.0000)
  57 O      3.839359    3.849631   11.946588    ( 0.0000,  0.0000,  0.0000)
  58 O      7.552263    3.818492   10.460321    ( 0.0000,  0.0000,  0.0000)
  59 O      2.385317    5.737256   10.439904    ( 0.0000,  0.0000,  0.0000)
  60 O      0.923975    5.743959   13.057776    ( 0.0000,  0.0000,  0.0000)
  61 O      6.037470    3.744598   13.199924    ( 0.0000,  0.0000,  0.0000)
  62 Ti     4.154352    3.793971   13.815595    ( 0.0000,  0.0000,  0.0000)
  63 Ti     9.374554    5.733088   13.975228    ( 0.0000,  0.0000,  0.0000)
  64 Ti     1.837167    5.742562   14.591249    ( 0.0000,  0.0000,  0.0000)
  65 Ti     7.199819    3.792894   14.785162    ( 0.0000,  0.0000,  0.0000)
  66 O      2.365952    3.867175   14.793341    ( 0.0000,  0.0000,  0.0000)
  67 O      7.537858    5.735328   14.619124    ( 0.0000,  0.0000,  0.0000)
  68 O      0.195974    5.734870   15.426130    ( 0.0000,  0.0000,  0.0000)
  69 O      5.181121    4.041632   15.511408    ( 0.0000,  0.0000,  0.0000)
  70 O      8.975906    3.802457   13.992781    ( 0.0000,  0.0000,  0.0000)
  71 O      3.800349    5.766246   13.925638    ( 0.0000,  0.0000,  0.0000)
  72 O      8.476572    9.555862    6.000000    ( 0.0000,  0.0000,  0.0000)
  73 O      3.305699    7.644690    6.000000    ( 0.0000,  0.0000,  0.0000)
  74 Ti     1.412752    7.644690    6.752957    ( 0.0000,  0.0000,  0.0000)
  75 Ti     6.583625    9.555862    6.752957    ( 0.0000,  0.0000,  0.0000)
  76 Ti     9.522250    9.555862    7.640878    ( 0.0000,  0.0000,  0.0000)
  77 Ti     4.351376    7.644690    7.640878    ( 0.0000,  0.0000,  0.0000)
  78 O      9.861551    7.644690    7.505914    ( 0.0000,  0.0000,  0.0000)
  79 O      4.690678    9.555862    7.505914    ( 0.0000,  0.0000,  0.0000)
  80 O      7.629303    9.555862    8.393834    ( 0.0000,  0.0000,  0.0000)
  81 O      2.458430    7.644690    8.393834    ( 0.0000,  0.0000,  0.0000)
  82 O      6.244323    7.644690    6.887921    ( 0.0000,  0.0000,  0.0000)
  83 O      1.073450    9.555862    6.887921    ( 0.0000,  0.0000,  0.0000)
  84 O      9.817414    9.559422    9.594902    ( 0.0000,  0.0000,  0.0000)
  85 O      4.648392    7.641369    9.609649    ( 0.0000,  0.0000,  0.0000)
  86 Ti     2.774494    7.656314   10.323177    ( 0.0000,  0.0000,  0.0000)
  87 Ti     7.978363    9.570598   10.371800    ( 0.0000,  0.0000,  0.0000)
  88 Ti     0.512005    9.544516   11.198298    ( 0.0000,  0.0000,  0.0000)
  89 Ti     5.719808    7.672324   11.203001    ( 0.0000,  0.0000,  0.0000)
  90 O      0.912671    7.651264   11.077830    ( 0.0000,  0.0000,  0.0000)
  91 O      6.085548    9.556824   11.085094    ( 0.0000,  0.0000,  0.0000)
  92 O      9.049765    9.555163   11.954209    ( 0.0000,  0.0000,  0.0000)
  93 O      3.843340    7.656186   11.943665    ( 0.0000,  0.0000,  0.0000)
  94 O      7.553947    7.650764   10.459591    ( 0.0000,  0.0000,  0.0000)
  95 O      2.394630    9.554656   10.447901    ( 0.0000,  0.0000,  0.0000)
  96 O      0.967617    9.553765   13.142323    ( 0.0000,  0.0000,  0.0000)
  97 O      6.037235    7.690842   13.210893    ( 0.0000,  0.0000,  0.0000)
  98 Ti     4.180220    7.610607   13.821722    ( 0.0000,  0.0000,  0.0000)
  99 Ti     9.464769    9.625635   14.009300    ( 0.0000,  0.0000,  0.0000)
 100 Ti     1.901659    9.520206   14.775302    ( 0.0000,  0.0000,  0.0000)
 101 Ti     7.226406    7.708037   14.783120    ( 0.0000,  0.0000,  0.0000)
 102 O      2.360439    7.640571   14.808961    ( 0.0000,  0.0000,  0.0000)
 103 O      7.563139    9.619669   14.784127    ( 0.0000,  0.0000,  0.0000)
 104 O      0.208218    9.590219   15.486301    ( 0.0000,  0.0000,  0.0000)
 105 O      5.181422    7.583822   15.555586    ( 0.0000,  0.0000,  0.0000)
 106 O      8.983851    7.677644   13.996903    ( 0.0000,  0.0000,  0.0000)
 107 O      3.841792    9.561986   13.949094    ( 0.0000,  0.0000,  0.0000)
 108 V      5.699905    4.137382   17.183119    ( 0.0000,  0.0000,  0.0000)
 109 V      5.765442    7.440154   17.198872    ( 0.0000,  0.0000,  0.0000)
 110 O      2.608814    1.885063   16.940925    ( 0.0000,  0.0000,  0.0000)
 111 O      5.396060    5.787538   17.853609    ( 0.0000,  0.0000,  0.0000)
 112 O      2.815750    9.754487   16.780490    ( 0.0000,  0.0000,  0.0000)
 113 O      7.359383    3.820909   16.734000    ( 0.0000,  0.0000,  0.0000)
 114 O      5.131784    8.659891   18.059524    ( 0.0000,  0.0000,  0.0000)
 115 O      4.949082    2.981450   18.045662    ( 0.0000,  0.0000,  0.0000)
 116 O      7.432851    7.643106   16.717964    ( 0.0000,  0.0000,  0.0000)
 117 H      3.622273    9.324753   17.175189    ( 0.0000,  0.0000,  0.0000)
 118 H      2.892904   10.705093   16.994808    ( 0.0000,  0.0000,  0.0000)
 119 H      3.448244    2.284340   17.314732    ( 0.0000,  0.0000,  0.0000)
 120 H      1.880741    2.211930   17.502582    ( 0.0000,  0.0000,  0.0000)

Unit cell:
           periodic     x           y           z      points  spacing
  1. axis:    yes   10.341746    0.000000    0.000000    54     0.1915
  2. axis:    yes   -0.000000   11.467000    0.000000    60     0.1911
  3. axis:    no     0.000000    0.000000   23.497201   125     0.1880

  Lengths:  10.341746  11.467000  23.497201
  Angles:   90.000000  90.000000  90.000000

Effective grid spacing dv^(1/3) = 0.1902

                     log10-error:    total        iterations:
           time      wfs    density  energy       fermi  poisson
iter:   1  03:28:34  -3.23   +inf  -985.911385    3             
iter:   2  03:29:31  -4.24  -3.25  -985.905013    2             
iter:   3  03:30:28  -3.39  -3.29  -985.889302    3             
iter:   4  03:31:25  -4.81  -3.41  -985.887964    2             
iter:   5  03:32:22  -4.67  -3.57  -985.886327    2             
iter:   6  03:33:19  -4.49  -3.76  -985.885774    2             
iter:   7  03:34:16  -5.37  -3.76  -985.885224    2             
iter:   8  03:35:13  -5.62  -3.95  -985.885060    2             
iter:   9  03:36:09  -5.73  -4.14  -985.885074    2             
iter:  10  03:37:06  -6.22  -4.18  -985.885020    2             
iter:  11  03:38:03  -6.89  -4.54  -985.885022    2             
iter:  12  03:39:00  -7.75  -4.53  -985.885020    1             

Converged after 12 iterations.

Dipole moment: (-16.822815, -1.972106, -0.766822) |e|*Ang

Energy contributions relative to reference atoms: (reference = -1048982.797703)

Kinetic:       +710.777407
Potential:     -904.376261
External:        +0.000000
XC:            -800.174827
Entropy (-ST):   -0.000515
Local:           +7.888919
--------------------------
Free energy:   -985.885277
Extrapolated:  -985.885020

Fermi level: -0.55344

Showing only first 2 kpts
 Kpt  Band  Eigenvalues  Occupancy
  0   466     -1.62024    0.22222
  0   467     -1.61552    0.22222
  0   468      0.29550    0.00005
  0   469      0.43727    0.00001

  1   466     -1.63202    0.44444
  1   467     -1.60550    0.44443
  1   468      0.48702    0.00001
  1   469      0.57862    0.00001



Forces in eV/Ang:
  0 O    -1.89028    0.00659    1.53624
  1 O    -1.93456   -0.00016    1.52083
  2 Ti    3.84158   -0.00384    1.98061
  3 Ti    3.83533   -0.01976    1.96951
  4 Ti   -1.89211   -0.04263   -1.82276
  5 Ti   -1.87101   -0.00257   -1.95501
  6 O     0.89169    0.00726   -0.21138
  7 O     0.85475    0.06959   -0.20083
  8 O    -0.60839    0.01005   -0.59908
  9 O    -0.69241    0.01693   -0.62876
 10 O    -0.26874    0.00023   -0.86426
 11 O    -0.23137    0.11277   -0.92905
 12 O    -0.14028   -0.00074    0.02827
 13 O    -0.15621    0.00389    0.02610
 14 Ti    0.03542    0.00902   -0.09612
 15 Ti    0.00394    0.03296   -0.05212
 16 Ti    0.07041   -0.01888    0.05114
 17 Ti    0.08283    0.00237    0.03682
 18 O     0.12723    0.00157   -0.03753
 19 O     0.15124   -0.01248   -0.07016
 20 O     0.03650    0.01011    0.12560
 21 O     0.01888    0.00172    0.07237
 22 O     0.01521    0.00242    0.07688
 23 O     0.01753   -0.02077    0.10663
 24 O    -0.13407    0.01985   -0.05930
 25 O    -0.09675    0.01129    0.01422
 26 Ti    0.06692    0.09937   -0.14241
 27 Ti   -0.02388    0.06821   -0.07012
 28 Ti    0.03128   -0.01792    0.03348
 29 Ti    0.12134   -0.00360   -0.00895
 30 O     0.02626   -0.09470   -0.05937
 31 O     0.06423    0.01742   -0.00583
 32 O     0.02112   -0.00014    0.13865
 33 O    -0.01218    0.01232   -0.01236
 34 O    -0.11684    0.01377    0.12368
 35 O    -0.22738   -0.08215    0.23499
 36 O    -1.90026   -0.00035    1.53319
 37 O    -1.94468    0.00461    1.58121
 38 Ti    3.61812   -0.06657    1.74087
 39 Ti    3.87168    0.00158    1.99615
 40 Ti   -2.00089    0.00331   -1.97276
 41 Ti   -1.49165   -0.03292   -1.66883
 42 O     0.95827    0.01124   -0.21817
 43 O     0.81759   -0.00830   -0.18814
 44 O    -0.67049    0.00030   -0.66735
 45 O    -0.67866    0.01876   -0.68745
 46 O    -0.33051    0.00186   -0.88426
 47 O    -0.19644   -0.00626   -0.85026
 48 O    -0.13618    0.00278    0.02992
 49 O    -0.11574    0.00023    0.01248
 50 Ti   -0.02783    0.02589    0.00781
 51 Ti    0.03015   -0.00192   -0.10793
 52 Ti    0.01964    0.01147    0.06056
 53 Ti   -0.01000    0.02216    0.04484
 54 O     0.15697    0.03289   -0.08801
 55 O     0.13981    0.01130    0.02729
 56 O     0.05268    0.00286    0.05043
 57 O     0.02655    0.00840    0.03437
 58 O     0.02889    0.00629    0.10959
 59 O     0.02608   -0.00685   -0.00464
 60 O    -0.06233    0.00844    0.00181
 61 O    -0.03736    0.00386   -0.14933
 62 Ti   -0.01419    0.08164    0.08118
 63 Ti    0.02558    0.01127   -0.10372
 64 Ti    0.04472    0.02654   -0.00357
 65 Ti   -0.08238    0.04593    0.04839
 66 O     0.03033   -0.00480   -0.03316
 67 O    -0.04939    0.03070    0.26342
 68 O    -0.00281    0.00137   -0.02402
 69 O     0.05313   -0.01661    0.03060
 70 O    -0.08423   -0.00364    0.21973
 71 O    -0.19040   -0.09967    0.02303
 72 O    -1.89556   -0.00538    1.53258
 73 O    -1.94031   -0.00707    1.58022
 74 Ti    3.62732    0.07308    1.75542
 75 Ti    3.83643    0.01814    1.96232
 76 Ti   -1.87306    0.03974   -1.79311
 77 Ti   -1.51580    0.03282   -1.69399
 78 O     0.95552   -0.01038   -0.21900
 79 O     0.85562   -0.07694   -0.20196
 80 O    -0.62238   -0.01103   -0.61226
 81 O    -0.65776    0.00314   -0.66971
 82 O    -0.32677   -0.00181   -0.88040
 83 O    -0.23280   -0.10612   -0.93326
 84 O    -0.12697    0.00312    0.02719
 85 O    -0.13214    0.00055   -0.00192
 86 Ti   -0.00326   -0.01189    0.00492
 87 Ti   -0.01331   -0.01981   -0.04101
 88 Ti    0.07350    0.02404    0.03664
 89 Ti    0.00818   -0.02791    0.06137
 90 O     0.15514   -0.03798   -0.08584
 91 O     0.16028    0.04409   -0.06456
 92 O     0.03868    0.00066    0.12074
 93 O     0.02567    0.00414    0.03994
 94 O     0.02386   -0.00260    0.09648
 95 O     0.00921    0.01135    0.06110
 96 O    -0.15345   -0.00709   -0.03586
 97 O    -0.01235    0.01253   -0.17794
 98 Ti   -0.05478    0.08471    0.10732
 99 Ti   -0.03315   -0.06872   -0.06543
100 Ti    0.04791    0.09888    0.05925
101 Ti   -0.09625   -0.07211    0.02184
102 O     0.04883   -0.04767    0.06013
103 O     0.07870    0.00031   -0.03966
104 O     0.01853    0.00954    0.12007
105 O     0.12396   -0.06944   -0.07381
106 O    -0.06839    0.00894    0.20790
107 O    -0.23416   -0.07312    0.10873
108 V     0.05983    0.10547    0.03649
109 V     0.05312   -0.11291    0.00337
110 O     0.08849    0.00126   -0.10402
111 O     0.03691    0.03438    0.04561
112 O    -0.00816   -0.09555   -0.00058
113 O    -0.05551   -0.01752   -0.00285
114 O     0.02668   -0.12679    0.07692
115 O     0.04777    0.03012   -0.02098
116 O    -0.10060    0.01779   -0.03732
117 H    -0.01745    0.00930    0.00690
118 H     0.02721    0.05202    0.02671
119 H    -0.01513   -0.06141   -0.02357
120 H    -0.01274   -0.00559    0.01384

System changes: positions 

Initializing position-dependent things.

Density initialized from wave functions
                                                
                                                
                                                
                                                
                                                
                                                
                    OHH  O                      
                          V O                   
             O          O     O                 
                  Ti O   Oi     O               
             H    O    OV   OOTi     Ti         
           O   O H                O             
               Ti     Oi   O O                  
         O     O    OTi    Ti    OTi            
             Tii   OTi    OOO   O               
             OO   O     O Ti    Tii             
          O Ti     Oi   TiO  O O     O          
            O   O      Ti     TiO               
                TiO      O  O  O   O Ti         
         Ti   O O    O Oi    Ti     O           
         O     Ti    Ti    OTi    Ti            
             O O    O O         O               
                    Ti     Oi     O             
             Oi     O    O      Ti              
           O     OTi    Ti     O                
          Ti          O      O                  
               O                                
                                                
                                                
                                                
                                                

Positions:
   0 O      8.476572    1.911173    6.000000    ( 0.0000,  0.0000,  0.0000)
   1 O      3.305699    0.000000    6.000000    ( 0.0000,  0.0000,  0.0000)
   2 Ti     1.412752    0.000000    6.752957    ( 0.0000,  0.0000,  0.0000)
   3 Ti     6.583625    1.911173    6.752957    ( 0.0000,  0.0000,  0.0000)
   4 Ti     9.522250    1.911173    7.640878    ( 0.0000,  0.0000,  0.0000)
   5 Ti     4.351376    0.000000    7.640878    ( 0.0000,  0.0000,  0.0000)
   6 O      9.861551    0.000000    7.505914    ( 0.0000,  0.0000,  0.0000)
   7 O      4.690678    1.911173    7.505914    ( 0.0000,  0.0000,  0.0000)
   8 O      7.629303    1.911173    8.393834    ( 0.0000,  0.0000,  0.0000)
   9 O      2.458430    0.000000    8.393834    ( 0.0000,  0.0000,  0.0000)
  10 O      6.244323    0.000000    6.887921    ( 0.0000,  0.0000,  0.0000)
  11 O      1.073450    1.911173    6.887921    ( 0.0000,  0.0000,  0.0000)
  12 O      9.813808    1.911020    9.594661    ( 0.0000,  0.0000,  0.0000)
  13 O      4.631611   11.463087    9.579370    ( 0.0000,  0.0000,  0.0000)
  14 Ti     2.753111   11.469186   10.381147    ( 0.0000,  0.0000,  0.0000)
  15 Ti     7.968988    1.893712   10.374027    ( 0.0000,  0.0000,  0.0000)
  16 Ti     0.507146    1.927519   11.189603    ( 0.0000,  0.0000,  0.0000)
  17 Ti     5.662920    0.002754   11.129983    ( 0.0000,  0.0000,  0.0000)
  18 O      0.923617    0.005095   11.091757    ( 0.0000,  0.0000,  0.0000)
  19 O      6.092700    1.907354   11.078827    ( 0.0000,  0.0000,  0.0000)
  20 O      9.048618    1.915858   11.958207    ( 0.0000,  0.0000,  0.0000)
  21 O      3.863187    0.017690   11.945583    ( 0.0000,  0.0000,  0.0000)
  22 O      7.570408   11.465756   10.451994    ( 0.0000,  0.0000,  0.0000)
  23 O      2.393878    1.922380   10.454167    ( 0.0000,  0.0000,  0.0000)
  24 O      0.953595    1.934850   13.144049    ( 0.0000,  0.0000,  0.0000)
  25 O      6.102956   11.464711   13.058553    ( 0.0000,  0.0000,  0.0000)
  26 Ti     4.181159   11.424336   13.984091    ( 0.0000,  0.0000,  0.0000)
  27 Ti     9.450338    1.867260   14.017866    ( 0.0000,  0.0000,  0.0000)
  28 Ti     1.901381    1.937388   14.751844    ( 0.0000,  0.0000,  0.0000)
  29 Ti     6.997949    0.010248   14.595242    ( 0.0000,  0.0000,  0.0000)
  30 O      2.387157    0.026184   14.770385    ( 0.0000,  0.0000,  0.0000)
  31 O      7.562480    1.865803   14.787501    ( 0.0000,  0.0000,  0.0000)
  32 O      0.206696    1.912406   15.501818    ( 0.0000,  0.0000,  0.0000)
  33 O      5.376191   11.460484   15.439679    ( 0.0000,  0.0000,  0.0000)
  34 O      9.055827    0.010103   13.955367    ( 0.0000,  0.0000,  0.0000)
  35 O      3.836226    1.944145   13.980628    ( 0.0000,  0.0000,  0.0000)
  36 O      8.476572    5.733518    6.000000    ( 0.0000,  0.0000,  0.0000)
  37 O      3.305699    3.822345    6.000000    ( 0.0000,  0.0000,  0.0000)
  38 Ti     1.412752    3.822345    6.752957    ( 0.0000,  0.0000,  0.0000)
  39 Ti     6.583625    5.733518    6.752957    ( 0.0000,  0.0000,  0.0000)
  40 Ti     9.522250    5.733518    7.640878    ( 0.0000,  0.0000,  0.0000)
  41 Ti     4.351376    3.822345    7.640878    ( 0.0000,  0.0000,  0.0000)
  42 O      9.861551    3.822345    7.505914    ( 0.0000,  0.0000,  0.0000)
  43 O      4.690678    5.733518    7.505914    ( 0.0000,  0.0000,  0.0000)
  44 O      7.629303    5.733518    8.393834    ( 0.0000,  0.0000,  0.0000)
  45 O      2.458430    3.822345    8.393834    ( 0.0000,  0.0000,  0.0000)
  46 O      6.244323    3.822345    6.887921    ( 0.0000,  0.0000,  0.0000)
  47 O      1.073450    5.733518    6.887921    ( 0.0000,  0.0000,  0.0000)
  48 O      9.798882    5.735408    9.580630    ( 0.0000,  0.0000,  0.0000)
  49 O      4.640467    3.818266    9.612196    ( 0.0000,  0.0000,  0.0000)
  50 Ti     2.779011    3.813293   10.318543    ( 0.0000,  0.0000,  0.0000)
  51 Ti     7.934735    5.735678   10.388298    ( 0.0000,  0.0000,  0.0000)
  52 Ti     0.517727    5.732527   11.114836    ( 0.0000,  0.0000,  0.0000)
  53 Ti     5.728316    3.808476   11.213771    ( 0.0000,  0.0000,  0.0000)
  54 O      0.915147    3.824388   11.076089    ( 0.0000,  0.0000,  0.0000)
  55 O      6.098023    5.734004   11.113248    ( 0.0000,  0.0000,  0.0000)
  56 O      9.036146    5.735781   11.945872    ( 0.0000,  0.0000,  0.0000)
  57 O      3.840212    3.849980   11.947298    ( 0.0000,  0.0000,  0.0000)
  58 O      7.553240    3.818620   10.464029    ( 0.0000,  0.0000,  0.0000)
  59 O      2.386211    5.737027   10.439711    ( 0.0000,  0.0000,  0.0000)
  60 O      0.921569    5.744235   13.057468    ( 0.0000,  0.0000,  0.0000)
  61 O      6.036431    3.744735   13.194506    ( 0.0000,  0.0000,  0.0000)
  62 Ti     4.153641    3.796762   13.818544    ( 0.0000,  0.0000,  0.0000)
  63 Ti     9.375556    5.733447   13.971134    ( 0.0000,  0.0000,  0.0000)
  64 Ti     1.839761    5.743484   14.591163    ( 0.0000,  0.0000,  0.0000)
  65 Ti     7.196813    3.794390   14.786452    ( 0.0000,  0.0000,  0.0000)
  66 O      2.366965    3.867120   14.792161    ( 0.0000,  0.0000,  0.0000)
  67 O      7.535996    5.736467   14.628373    ( 0.0000,  0.0000,  0.0000)
  68 O      0.195435    5.734923   15.425914    ( 0.0000,  0.0000,  0.0000)
  69 O      5.183491    4.041200   15.513587    ( 0.0000,  0.0000,  0.0000)
  70 O      8.973066    3.801958   14.000225    ( 0.0000,  0.0000,  0.0000)
  71 O      3.793642    5.762730   13.926454    ( 0.0000,  0.0000,  0.0000)
  72 O      8.476572    9.555862    6.000000    ( 0.0000,  0.0000,  0.0000)
  73 O      3.305699    7.644690    6.000000    ( 0.0000,  0.0000,  0.0000)
  74 Ti     1.412752    7.644690    6.752957    ( 0.0000,  0.0000,  0.0000)
  75 Ti     6.583625    9.555862    6.752957    ( 0.0000,  0.0000,  0.0000)
  76 Ti     9.522250    9.555862    7.640878    ( 0.0000,  0.0000,  0.0000)
  77 Ti     4.351376    7.644690    7.640878    ( 0.0000,  0.0000,  0.0000)
  78 O      9.861551    7.644690    7.505914    ( 0.0000,  0.0000,  0.0000)
  79 O      4.690678    9.555862    7.505914    ( 0.0000,  0.0000,  0.0000)
  80 O      7.629303    9.555862    8.393834    ( 0.0000,  0.0000,  0.0000)
  81 O      2.458430    7.644690    8.393834    ( 0.0000,  0.0000,  0.0000)
  82 O      6.244323    7.644690    6.887921    ( 0.0000,  0.0000,  0.0000)
  83 O      1.073450    9.555862    6.887921    ( 0.0000,  0.0000,  0.0000)
  84 O      9.812968    9.559538    9.595691    ( 0.0000,  0.0000,  0.0000)
  85 O      4.643651    7.641383    9.609404    ( 0.0000,  0.0000,  0.0000)
  86 Ti     2.774322    7.655916   10.323516    ( 0.0000,  0.0000,  0.0000)
  87 Ti     7.977608    9.569902   10.370186    ( 0.0000,  0.0000,  0.0000)
  88 Ti     0.514711    9.545283   11.199501    ( 0.0000,  0.0000,  0.0000)
  89 Ti     5.720098    7.671340   11.205210    ( 0.0000,  0.0000,  0.0000)
  90 O      0.918135    7.649987   11.074842    ( 0.0000,  0.0000,  0.0000)
  91 O      6.091220    9.558442   11.082865    ( 0.0000,  0.0000,  0.0000)
  92 O      9.051180    9.555206   11.958766    ( 0.0000,  0.0000,  0.0000)
  93 O      3.844144    7.656360   11.944619    ( 0.0000,  0.0000,  0.0000)
  94 O      7.554760    7.650739   10.462866    ( 0.0000,  0.0000,  0.0000)
  95 O      2.394899    9.555024   10.449950    ( 0.0000,  0.0000,  0.0000)
  96 O      0.961891    9.553595   13.140385    ( 0.0000,  0.0000,  0.0000)
  97 O      6.037119    7.691265   13.204606    ( 0.0000,  0.0000,  0.0000)
  98 Ti     4.178046    7.613426   13.825587    ( 0.0000,  0.0000,  0.0000)
  99 Ti     9.463183    9.623133   14.006477    ( 0.0000,  0.0000,  0.0000)
 100 Ti     1.904845    9.523524   14.777393    ( 0.0000,  0.0000,  0.0000)
 101 Ti     7.223040    7.705606   14.783685    ( 0.0000,  0.0000,  0.0000)
 102 O      2.362014    7.638878   14.810939    ( 0.0000,  0.0000,  0.0000)
 103 O      7.566110    9.619634   14.782762    ( 0.0000,  0.0000,  0.0000)
 104 O      0.208074    9.590571   15.491344    ( 0.0000,  0.0000,  0.0000)
 105 O      5.186187    7.581356   15.554043    ( 0.0000,  0.0000,  0.0000)
 106 O      8.981494    7.678299   14.003946    ( 0.0000,  0.0000,  0.0000)
 107 O      3.833705    9.559668   13.952808    ( 0.0000,  0.0000,  0.0000)
 108 V      5.700849    4.139019   17.184563    ( 0.0000,  0.0000,  0.0000)
 109 V      5.766618    7.438612   17.199407    ( 0.0000,  0.0000,  0.0000)
 110 O      2.611923    1.887865   16.941155    ( 0.0000,  0.0000,  0.0000)
 111 O      5.397315    5.788762   17.855312    ( 0.0000,  0.0000,  0.0000)
 112 O      2.819123    9.754106   16.783278    ( 0.0000,  0.0000,  0.0000)
 113 O      7.357349    3.820497   16.734004    ( 0.0000,  0.0000,  0.0000)
 114 O      5.133288    8.654110   18.060957    ( 0.0000,  0.0000,  0.0000)
 115 O      4.951340    2.983724   18.043858    ( 0.0000,  0.0000,  0.0000)
 116 O      7.428888    7.643451   16.716721    ( 0.0000,  0.0000,  0.0000)
 117 H      3.618958    9.326283   17.174040    ( 0.0000,  0.0000,  0.0000)
 118 H      2.893263   10.702901   16.994641    ( 0.0000,  0.0000,  0.0000)
 119 H      3.445409    2.281015   17.312721    ( 0.0000,  0.0000,  0.0000)
 120 H      1.882721    2.210523   17.501012    ( 0.0000,  0.0000,  0.0000)

Unit cell:
           periodic     x           y           z      points  spacing
  1. axis:    yes   10.341746    0.000000    0.000000    54     0.1915
  2. axis:    yes   -0.000000   11.467000    0.000000    60     0.1911
  3. axis:    no     0.000000    0.000000   23.497201   125     0.1880

  Lengths:  10.341746  11.467000  23.497201
  Angles:   90.000000  90.000000  90.000000

Effective grid spacing dv^(1/3) = 0.1902

                     log10-error:    total        iterations:
           time      wfs    density  energy       fermi  poisson
iter:   1  03:40:18  -3.04   +inf  -985.935371    3             
iter:   2  03:41:15  -3.97  -3.22  -985.932932    2             
iter:   3  03:42:12  -3.79  -3.24  -985.921897    3             
iter:   4  03:43:09  -4.80  -3.48  -985.921864    2             
iter:   5  03:44:05  -4.75  -3.52  -985.921393    2             
iter:   6  03:45:02  -4.44  -3.65  -985.921133    2             
iter:   7  03:45:59  -5.25  -3.75  -985.920444    2             
iter:   8  03:46:56  -5.72  -4.01  -985.920389    1             
iter:   9  03:47:53  -5.72  -4.17  -985.920420    2             
iter:  10  03:48:50  -6.13  -4.18  -985.920360    2             
iter:  11  03:49:47  -7.19  -4.53  -985.920358    1             
iter:  12  03:50:44  -6.53  -4.55  -985.920368    2             
iter:  13  03:51:40  -6.80  -4.56  -985.920357    2             
iter:  14  03:52:37  -7.80  -4.92  -985.920356    1             

Converged after 14 iterations.

Dipole moment: (-17.072241, -2.027906, -0.764551) |e|*Ang

Energy contributions relative to reference atoms: (reference = -1048982.797703)

Kinetic:       +711.762239
Potential:     -905.096044
External:        +0.000000
XC:            -800.458519
Entropy (-ST):   -0.000513
Local:           +7.872224
--------------------------
Free energy:   -985.920613
Extrapolated:  -985.920356

Fermi level: -0.55405

Showing only first 2 kpts
 Kpt  Band  Eigenvalues  Occupancy
  0   466     -1.62159    0.22222
  0   467     -1.61733    0.22222
  0   468      0.29546    0.00005
  0   469      0.43651    0.00001

  1   466     -1.63273    0.44444
  1   467     -1.60746    0.44443
  1   468      0.48765    0.00001
  1   469      0.57785    0.00001



Forces in eV/Ang:
  0 O    -1.89233    0.00656    1.53751
  1 O    -1.93700    0.00004    1.52222
  2 Ti    3.83579   -0.00497    1.97291
  3 Ti    3.83030   -0.02010    1.96502
  4 Ti   -1.88462   -0.04330   -1.81094
  5 Ti   -1.86239   -0.00399   -1.94785
  6 O     0.89317    0.00819   -0.21140
  7 O     0.85834    0.06694   -0.20204
  8 O    -0.62633    0.01121   -0.60892
  9 O    -0.71289    0.01824   -0.64562
 10 O    -0.26781    0.00122   -0.86197
 11 O    -0.23250    0.10810   -0.92595
 12 O    -0.07782    0.00210    0.04259
 13 O    -0.08052    0.00454    0.05563
 14 Ti    0.05793    0.00546   -0.06342
 15 Ti    0.04087    0.02507   -0.00817
 16 Ti    0.03227   -0.02900    0.05116
 17 Ti    0.05207    0.00205    0.00518
 18 O     0.06244    0.00200   -0.02778
 19 O     0.08179   -0.00152   -0.04854
 20 O     0.01713    0.01511    0.05497
 21 O     0.02508    0.00227    0.04455
 22 O     0.02823    0.00900    0.06582
 23 O     0.02624   -0.01334    0.09426
 24 O    -0.04929    0.02419    0.03665
 25 O    -0.05588    0.01234    0.02499
 26 Ti    0.08634    0.08276   -0.06865
 27 Ti    0.02485    0.01954    0.02325
 28 Ti   -0.13455   -0.04047    0.03696
 29 Ti    0.04534   -0.00831    0.00178
 30 O    -0.00911   -0.06641   -0.04100
 31 O     0.00428    0.02325   -0.00044
 32 O     0.07960    0.00243    0.01489
 33 O     0.02651    0.00796   -0.07392
 34 O    -0.10376    0.01723    0.10278
 35 O    -0.15214   -0.01807    0.19638
 36 O    -1.90238   -0.00050    1.53620
 37 O    -1.94562    0.00438    1.58017
 38 Ti    3.62565   -0.06369    1.74557
 39 Ti    3.85784    0.00261    1.98487
 40 Ti   -1.98364    0.00448   -1.97247
 41 Ti   -1.50144   -0.03132   -1.65543
 42 O     0.95570    0.01300   -0.21620
 43 O     0.82464   -0.01053   -0.19100
 44 O    -0.68760   -0.00021   -0.67314
 45 O    -0.69276    0.01438   -0.70165
 46 O    -0.32563    0.00402   -0.88527
 47 O    -0.20116   -0.00779   -0.84743
 48 O    -0.07213    0.00208    0.04558
 49 O    -0.05612    0.00122    0.01861
 50 Ti   -0.00470    0.02638   -0.01035
 51 Ti    0.03508   -0.00045   -0.07838
 52 Ti    0.01238    0.01384    0.01700
 53 Ti   -0.00723    0.01659    0.01507
 54 O     0.08898    0.02426   -0.05801
 55 O     0.07844    0.00631    0.01980
 56 O     0.03988    0.00204    0.03526
 57 O     0.01816   -0.00381    0.08008
 58 O     0.03921    0.01924    0.09318
 59 O     0.02849   -0.00618   -0.00292
 60 O    -0.02853    0.01029    0.01528
 61 O    -0.03642    0.00256   -0.05820
 62 Ti   -0.02604    0.06781    0.02817
 63 Ti    0.01069    0.01581   -0.00135
 64 Ti   -0.06638    0.02019    0.01263
 65 Ti   -0.04277    0.02685    0.05205
 66 O     0.01254   -0.01828   -0.01655
 67 O    -0.03285    0.01089    0.19027
 68 O     0.02414   -0.00067   -0.07265
 69 O    -0.00171   -0.01562   -0.07064
 70 O    -0.06257    0.05739    0.21427
 71 O    -0.11412   -0.06013    0.00752
 72 O    -1.89750   -0.00515    1.53364
 73 O    -1.94274   -0.00706    1.57738
 74 Ti    3.63779    0.07149    1.76178
 75 Ti    3.83172    0.01747    1.95883
 76 Ti   -1.86607    0.03922   -1.77948
 77 Ti   -1.52663    0.03248   -1.67959
 78 O     0.95236   -0.01285   -0.21723
 79 O     0.85955   -0.07191   -0.20369
 80 O    -0.63876   -0.01151   -0.62166
 81 O    -0.67558    0.00517   -0.68967
 82 O    -0.32108   -0.00495   -0.88325
 83 O    -0.23373   -0.09998   -0.93025
 84 O    -0.07012    0.00085    0.03623
 85 O    -0.06397    0.00084    0.01872
 86 Ti    0.02010   -0.01069   -0.01104
 87 Ti    0.02938   -0.01298    0.00419
 88 Ti    0.03521    0.03003    0.04950
 89 Ti    0.00407   -0.02057    0.04146
 90 O     0.08551   -0.02805   -0.05508
 91 O     0.09024    0.01802   -0.04596
 92 O     0.01565   -0.00401    0.04337
 93 O     0.02021   -0.00284    0.07775
 94 O     0.03275   -0.01267    0.08185
 95 O     0.01723    0.01144    0.05498
 96 O    -0.06846   -0.01675    0.03229
 97 O    -0.02549    0.01174   -0.10339
 98 Ti   -0.05194    0.09707    0.04346
 99 Ti    0.02273   -0.02506    0.02929
100 Ti   -0.12878    0.09269    0.05282
101 Ti   -0.07164   -0.04561    0.00550
102 O     0.04762   -0.04012    0.05971
103 O     0.01569   -0.00804   -0.02874
104 O     0.07393    0.00593   -0.01140
105 O     0.05889   -0.06396   -0.14363
106 O    -0.03862   -0.04951    0.20904
107 O    -0.16307   -0.08433    0.07565
108 V     0.07697    0.14244    0.04524
109 V     0.02071   -0.16711    0.01194
110 O    -0.12895   -0.15109   -0.26543
111 O     0.02668    0.01248    0.06180
112 O    -0.27582   -0.06655   -0.15838
113 O    -0.00364   -0.02701    0.00972
114 O    -0.00325   -0.04585    0.12135
115 O     0.01335   -0.02545    0.04296
116 O     0.00945    0.03527   -0.00973
117 H     0.23064   -0.11015    0.13021
118 H     0.05166    0.16633    0.06420
119 H     0.23280    0.06526    0.09412
120 H    -0.06154    0.02172    0.06008

System changes: positions 

Initializing position-dependent things.

Density initialized from wave functions
                                                
                                                
                                                
                                                
                                                
                                                
                    OHH  O                      
                          V O                   
              O         O     O                 
                  Ti O   Oi     O               
             H    O   O V   OOTi     Ti         
           O   O H                O             
               Ti     Oi   O O                  
         O     O    OTi    Ti    OTi            
             Tii   OTi    OOO   O               
             OO   O     O Ti    Tii             
          O Ti     Oi   TiO  O O     O          
            O   O      Ti     TiO               
                TiO      O  O  O   O Ti         
         Ti   O O    O Oi    Ti     O           
         O     Ti    Ti    OTi    Ti            
             O O    O O         O               
                    Ti     Oi     O             
             Oi     O    O      Ti              
           O     OTi    Ti     O                
          Ti          O      O                  
               O                                
                                                
                                                
                                                
                                                

Positions:
   0 O      8.476572    1.911173    6.000000    ( 0.0000,  0.0000,  0.0000)
   1 O      3.305699    0.000000    6.000000    ( 0.0000,  0.0000,  0.0000)
   2 Ti     1.412752    0.000000    6.752957    ( 0.0000,  0.0000,  0.0000)
   3 Ti     6.583625    1.911173    6.752957    ( 0.0000,  0.0000,  0.0000)
   4 Ti     9.522250    1.911173    7.640878    ( 0.0000,  0.0000,  0.0000)
   5 Ti     4.351376    0.000000    7.640878    ( 0.0000,  0.0000,  0.0000)
   6 O      9.861551    0.000000    7.505914    ( 0.0000,  0.0000,  0.0000)
   7 O      4.690678    1.911173    7.505914    ( 0.0000,  0.0000,  0.0000)
   8 O      7.629303    1.911173    8.393834    ( 0.0000,  0.0000,  0.0000)
   9 O      2.458430    0.000000    8.393834    ( 0.0000,  0.0000,  0.0000)
  10 O      6.244323    0.000000    6.887921    ( 0.0000,  0.0000,  0.0000)
  11 O      1.073450    1.911173    6.887921    ( 0.0000,  0.0000,  0.0000)
  12 O      9.807247    1.911029    9.596341    ( 0.0000,  0.0000,  0.0000)
  13 O      4.624283   11.463312    9.581052    ( 0.0000,  0.0000,  0.0000)
  14 Ti     2.755503   11.469635   10.376512    ( 0.0000,  0.0000,  0.0000)
  15 Ti     7.969668    1.895403   10.371875    ( 0.0000,  0.0000,  0.0000)
  16 Ti     0.510509    1.926308   11.192516    ( 0.0000,  0.0000,  0.0000)
  17 Ti     5.667067    0.002878   11.131648    ( 0.0000,  0.0000,  0.0000)
  18 O      0.929390    0.005194   11.089944    ( 0.0000,  0.0000,  0.0000)
  19 O      6.099823    1.906842   11.075341    ( 0.0000,  0.0000,  0.0000)
  20 O      9.050336    1.916516   11.964180    ( 0.0000,  0.0000,  0.0000)
  21 O      3.864277    0.017807   11.949089    ( 0.0000,  0.0000,  0.0000)
  22 O      7.571551   11.466002   10.456042    ( 0.0000,  0.0000,  0.0000)
  23 O      2.395004    1.921368   10.459873    ( 0.0000,  0.0000,  0.0000)
  24 O      0.947287    1.936018   13.141670    ( 0.0000,  0.0000,  0.0000)
  25 O      6.098342   11.465359   13.059214    ( 0.0000,  0.0000,  0.0000)
  26 Ti     4.184656   11.429541   13.977577    ( 0.0000,  0.0000,  0.0000)
  27 Ti     9.449419    1.870191   14.015281    ( 0.0000,  0.0000,  0.0000)
  28 Ti     1.901550    1.936053   14.754034    ( 0.0000,  0.0000,  0.0000)
  29 Ti     7.003565    0.009987   14.595054    ( 0.0000,  0.0000,  0.0000)
  30 O      2.387907    0.021415   14.767301    ( 0.0000,  0.0000,  0.0000)
  31 O      7.565047    1.867017   14.787315    ( 0.0000,  0.0000,  0.0000)
  32 O      0.208156    1.912462   15.508312    ( 0.0000,  0.0000,  0.0000)
  33 O      5.376184   11.461093   15.438403    ( 0.0000,  0.0000,  0.0000)
  34 O      9.049667    0.010907   13.961817    ( 0.0000,  0.0000,  0.0000)
  35 O      3.825059    1.940585   13.992918    ( 0.0000,  0.0000,  0.0000)
  36 O      8.476572    5.733518    6.000000    ( 0.0000,  0.0000,  0.0000)
  37 O      3.305699    3.822345    6.000000    ( 0.0000,  0.0000,  0.0000)
  38 Ti     1.412752    3.822345    6.752957    ( 0.0000,  0.0000,  0.0000)
  39 Ti     6.583625    5.733518    6.752957    ( 0.0000,  0.0000,  0.0000)
  40 Ti     9.522250    5.733518    7.640878    ( 0.0000,  0.0000,  0.0000)
  41 Ti     4.351376    3.822345    7.640878    ( 0.0000,  0.0000,  0.0000)
  42 O      9.861551    3.822345    7.505914    ( 0.0000,  0.0000,  0.0000)
  43 O      4.690678    5.733518    7.505914    ( 0.0000,  0.0000,  0.0000)
  44 O      7.629303    5.733518    8.393834    ( 0.0000,  0.0000,  0.0000)
  45 O      2.458430    3.822345    8.393834    ( 0.0000,  0.0000,  0.0000)
  46 O      6.244323    3.822345    6.887921    ( 0.0000,  0.0000,  0.0000)
  47 O      1.073450    5.733518    6.887921    ( 0.0000,  0.0000,  0.0000)
  48 O      9.792502    5.735550    9.582345    ( 0.0000,  0.0000,  0.0000)
  49 O      4.635120    3.818299    9.612869    ( 0.0000,  0.0000,  0.0000)
  50 Ti     2.777962    3.814741   10.318854    ( 0.0000,  0.0000,  0.0000)
  51 Ti     7.936400    5.735611   10.382880    ( 0.0000,  0.0000,  0.0000)
  52 Ti     0.518758    5.733211   11.117614    ( 0.0000,  0.0000,  0.0000)
  53 Ti     5.727778    3.809613   11.215873    ( 0.0000,  0.0000,  0.0000)
  54 O      0.922556    3.825981   11.071792    ( 0.0000,  0.0000,  0.0000)
  55 O      6.104632    5.734545   11.114655    ( 0.0000,  0.0000,  0.0000)
  56 O      9.038854    5.735929   11.948553    ( 0.0000,  0.0000,  0.0000)
  57 O      3.841403    3.850247   11.949623    ( 0.0000,  0.0000,  0.0000)
  58 O      7.555139    3.819163   10.469762    ( 0.0000,  0.0000,  0.0000)
  59 O      2.387763    5.736664   10.439431    ( 0.0000,  0.0000,  0.0000)
  60 O      0.918419    5.744740   13.057263    ( 0.0000,  0.0000,  0.0000)
  61 O      6.034760    3.744931   13.187852    ( 0.0000,  0.0000,  0.0000)
  62 Ti     4.152114    3.801043   13.822077    ( 0.0000,  0.0000,  0.0000)
  63 Ti     9.376849    5.734161   13.966949    ( 0.0000,  0.0000,  0.0000)
  64 Ti     1.841287    5.744855   14.591453    ( 0.0000,  0.0000,  0.0000)
  65 Ti     7.192830    3.796367   14.788646    ( 0.0000,  0.0000,  0.0000)
  66 O      2.368179    3.866687   14.790629    ( 0.0000,  0.0000,  0.0000)
  67 O      7.533309    5.737851   14.641871    ( 0.0000,  0.0000,  0.0000)
  68 O      0.195189    5.734958   15.424350    ( 0.0000,  0.0000,  0.0000)
  69 O      5.186063    4.040527   15.514693    ( 0.0000,  0.0000,  0.0000)
  70 O      8.968915    3.802687   14.012462    ( 0.0000,  0.0000,  0.0000)
  71 O      3.784466    5.757906   13.927408    ( 0.0000,  0.0000,  0.0000)
  72 O      8.476572    9.555862    6.000000    ( 0.0000,  0.0000,  0.0000)
  73 O      3.305699    7.644690    6.000000    ( 0.0000,  0.0000,  0.0000)
  74 Ti     1.412752    7.644690    6.752957    ( 0.0000,  0.0000,  0.0000)
  75 Ti     6.583625    9.555862    6.752957    ( 0.0000,  0.0000,  0.0000)
  76 Ti     9.522250    9.555862    7.640878    ( 0.0000,  0.0000,  0.0000)
  77 Ti     4.351376    7.644690    7.640878    ( 0.0000,  0.0000,  0.0000)
  78 O      9.861551    7.644690    7.505914    ( 0.0000,  0.0000,  0.0000)
  79 O      4.690678    9.555862    7.505914    ( 0.0000,  0.0000,  0.0000)
  80 O      7.629303    9.555862    8.393834    ( 0.0000,  0.0000,  0.0000)
  81 O      2.458430    7.644690    8.393834    ( 0.0000,  0.0000,  0.0000)
  82 O      6.244323    7.644690    6.887921    ( 0.0000,  0.0000,  0.0000)
  83 O      1.073450    9.555862    6.887921    ( 0.0000,  0.0000,  0.0000)
  84 O      9.807054    9.559674    9.597224    ( 0.0000,  0.0000,  0.0000)
  85 O      4.637530    7.641413    9.609517    ( 0.0000,  0.0000,  0.0000)
  86 Ti     2.774644    7.655285   10.323682    ( 0.0000,  0.0000,  0.0000)
  87 Ti     7.977439    9.568922   10.368663    ( 0.0000,  0.0000,  0.0000)
  88 Ti     0.518230    9.546709   11.201838    ( 0.0000,  0.0000,  0.0000)
  89 Ti     5.720472    7.669893   11.208375    ( 0.0000,  0.0000,  0.0000)
  90 O      0.925412    7.648127   11.070673    ( 0.0000,  0.0000,  0.0000)
  91 O      6.098837    9.560462   11.079642    ( 0.0000,  0.0000,  0.0000)
  92 O      9.052938    9.555158   11.964368    ( 0.0000,  0.0000,  0.0000)
  93 O      3.845327    7.656470   11.947150    ( 0.0000,  0.0000,  0.0000)
  94 O      7.556349    7.650441   10.467929    ( 0.0000,  0.0000,  0.0000)
  95 O      2.395553    9.555637   10.453194    ( 0.0000,  0.0000,  0.0000)
  96 O      0.954539    9.553065   13.138862    ( 0.0000,  0.0000,  0.0000)
  97 O      6.036620    7.691947   13.196081    ( 0.0000,  0.0000,  0.0000)
  98 Ti     4.174462    7.618436   13.830362    ( 0.0000,  0.0000,  0.0000)
  99 Ti     9.461957    9.620102   14.004201    ( 0.0000,  0.0000,  0.0000)
 100 Ti     1.905690    9.528875   14.780713    ( 0.0000,  0.0000,  0.0000)
 101 Ti     7.218076    7.702266   14.784168    ( 0.0000,  0.0000,  0.0000)
 102 O      2.364589    7.636249   14.814208    ( 0.0000,  0.0000,  0.0000)
 103 O      7.569430    9.619350   14.780778    ( 0.0000,  0.0000,  0.0000)
 104 O      0.209192    9.591066   15.496392    ( 0.0000,  0.0000,  0.0000)
 105 O      5.192470    7.577384   15.549765    ( 0.0000,  0.0000,  0.0000)
 106 O      8.978355    7.677893   14.015690    ( 0.0000,  0.0000,  0.0000)
 107 O      3.822109    9.555539   13.958117    ( 0.0000,  0.0000,  0.0000)
 108 V      5.702723    4.142455   17.187224    ( 0.0000,  0.0000,  0.0000)
 109 V      5.767632    7.434925   17.200579    ( 0.0000,  0.0000,  0.0000)
 110 O      2.611367    1.888878   16.937784    ( 0.0000,  0.0000,  0.0000)
 111 O      5.399133    5.790228   17.858593    ( 0.0000,  0.0000,  0.0000)
 112 O      2.818163    9.754625   16.784131    ( 0.0000,  0.0000,  0.0000)
 113 O      7.355315    3.819586   16.734357    ( 0.0000,  0.0000,  0.0000)
 114 O      5.135082    8.646429   18.064353    ( 0.0000,  0.0000,  0.0000)
 115 O      4.954274    2.986209   18.042396    ( 0.0000,  0.0000,  0.0000)
 116 O      7.425127    7.644450   16.715385    ( 0.0000,  0.0000,  0.0000)
 117 H      3.619625    9.325839   17.175198    ( 0.0000,  0.0000,  0.0000)
 118 H      2.894429   10.701735   16.995208    ( 0.0000,  0.0000,  0.0000)
 119 H      3.446926    2.278660   17.312319    ( 0.0000,  0.0000,  0.0000)
 120 H      1.885052    2.208737   17.499346    ( 0.0000,  0.0000,  0.0000)

Unit cell:
           periodic     x           y           z      points  spacing
  1. axis:    yes   10.341746    0.000000    0.000000    54     0.1915
  2. axis:    yes   -0.000000   11.467000    0.000000    60     0.1911
  3. axis:    no     0.000000    0.000000   23.497201   125     0.1880

  Lengths:  10.341746  11.467000  23.497201
  Angles:   90.000000  90.000000  90.000000

Effective grid spacing dv^(1/3) = 0.1902

                     log10-error:    total        iterations:
           time      wfs    density  energy       fermi  poisson
iter:   1  03:53:55  -2.88   +inf  -985.958658    3             
iter:   2  03:54:52  -3.78  -3.19  -985.958885    2             
iter:   3  03:55:49  -3.94  -3.21  -985.951298    2             
iter:   4  03:56:46  -4.40  -3.45  -985.951229    2             
iter:   5  03:57:42  -4.43  -3.51  -985.951378    2             
iter:   6  03:58:39  -4.56  -3.64  -985.950486    2             
iter:   7  03:59:36  -5.05  -3.82  -985.950430    2             
iter:   8  04:00:33  -5.51  -3.87  -985.950151    2             
iter:   9  04:01:30  -5.94  -4.19  -985.950179    2             
iter:  10  04:02:27  -5.58  -4.17  -985.950166    2             
iter:  11  04:03:23  -6.65  -4.42  -985.950128    1             
iter:  12  04:04:20  -6.76  -4.57  -985.950112    2             
iter:  13  04:05:17  -7.08  -4.64  -985.950115    1             
iter:  14  04:06:14  -7.06  -4.79  -985.950111    1             
iter:  15  04:07:11  -7.61  -4.93  -985.950111    1             

Converged after 15 iterations.

Dipole moment: (-17.398487, -2.167147, -0.756397) |e|*Ang

Energy contributions relative to reference atoms: (reference = -1048982.797703)

Kinetic:       +712.879232
Potential:     -905.990805
External:        +0.000000
XC:            -800.715463
Entropy (-ST):   -0.000505
Local:           +7.877178
--------------------------
Free energy:   -985.950363
Extrapolated:  -985.950111

Fermi level: -0.55463

Showing only first 2 kpts
 Kpt  Band  Eigenvalues  Occupancy
  0   466     -1.62395    0.22222
  0   467     -1.62082    0.22222
  0   468      0.29668    0.00004
  0   469      0.43678    0.00001

  1   466     -1.63484    0.44444
  1   467     -1.61081    0.44443
  1   468      0.48934    0.00001
  1   469      0.57821    0.00001



Forces in eV/Ang:
  0 O    -1.89278    0.00659    1.53845
  1 O    -1.93788    0.00037    1.52471
  2 Ti    3.82678   -0.00678    1.96388
  3 Ti    3.82659   -0.02094    1.96331
  4 Ti   -1.88040   -0.04488   -1.79078
  5 Ti   -1.85155   -0.00602   -1.93662
  6 O     0.89581    0.01016   -0.21088
  7 O     0.86149    0.06176   -0.20212
  8 O    -0.64924    0.01327   -0.62606
  9 O    -0.73807    0.02022   -0.67004
 10 O    -0.26871    0.00293   -0.85931
 11 O    -0.23368    0.10188   -0.92218
 12 O     0.00671    0.00535    0.04901
 13 O     0.01079    0.00502    0.06362
 14 Ti    0.07822    0.00224   -0.00659
 15 Ti    0.06876    0.01740    0.04757
 16 Ti   -0.00507   -0.03165    0.04654
 17 Ti    0.02403    0.00205   -0.01646
 18 O    -0.02341    0.00129   -0.00896
 19 O    -0.00778    0.00985   -0.02079
 20 O    -0.00069    0.02141   -0.00826
 21 O     0.03266    0.00270    0.00787
 22 O     0.04732    0.01560    0.05316
 23 O     0.03644   -0.00565    0.08067
 24 O     0.02398    0.02673    0.10750
 25 O    -0.00604    0.01288    0.02585
 26 Ti    0.06455    0.05699    0.01113
 27 Ti    0.04064   -0.02030    0.10713
 28 Ti   -0.21203   -0.05366    0.04931
 29 Ti   -0.03279   -0.00990    0.00414
 30 O    -0.06092   -0.03048   -0.02922
 31 O    -0.06079    0.02266    0.00977
 32 O     0.07969    0.00025   -0.07799
 33 O     0.06228    0.00116   -0.11168
 34 O    -0.06888    0.01606    0.08232
 35 O    -0.03871    0.02948    0.15598
 36 O    -1.90342   -0.00072    1.54012
 37 O    -1.94696    0.00408    1.57792
 38 Ti    3.63579   -0.05998    1.75218
 39 Ti    3.83863    0.00420    1.97105
 40 Ti   -1.96236    0.00644   -1.96736
 41 Ti   -1.51330   -0.02869   -1.63327
 42 O     0.95237    0.01608   -0.21265
 43 O     0.83343   -0.01333   -0.19409
 44 O    -0.71003   -0.00100   -0.68516
 45 O    -0.71211    0.00782   -0.72360
 46 O    -0.32009    0.00802   -0.88732
 47 O    -0.20772   -0.00997   -0.84432
 48 O     0.00716    0.00132    0.03944
 49 O     0.01595    0.00307    0.01632
 50 Ti    0.02816    0.02349   -0.01147
 51 Ti    0.03288    0.00244   -0.01484
 52 Ti    0.00354    0.01493   -0.01198
 53 Ti    0.00138    0.01150    0.00200
 54 O    -0.00132    0.00511   -0.01737
 55 O    -0.00155   -0.00044    0.00782
 56 O     0.02307    0.00139    0.01773
 57 O     0.00021   -0.01941    0.09018
 58 O     0.05353    0.02899    0.07187
 59 O     0.03735   -0.00313   -0.00250
 60 O    -0.00160    0.01359    0.01190
 61 O    -0.01927    0.00014    0.04843
 62 Ti   -0.05657    0.05449   -0.02039
 63 Ti   -0.02268    0.01818    0.09716
 64 Ti   -0.12444    0.00584    0.01929
 65 Ti   -0.01142    0.00579    0.03448
 66 O    -0.02744   -0.02567    0.00614
 67 O    -0.01949   -0.00845    0.09036
 68 O     0.02696   -0.00315   -0.08021
 69 O    -0.02681    0.00096   -0.09537
 70 O    -0.01774    0.10027    0.20953
 71 O    -0.01782   -0.00920   -0.00916
 72 O    -1.89824   -0.00488    1.53375
 73 O    -1.94571   -0.00703    1.57293
 74 Ti    3.65149    0.06979    1.77086
 75 Ti    3.82956    0.01677    1.95906
 76 Ti   -1.86282    0.03877   -1.75567
 77 Ti   -1.53988    0.03160   -1.65531
 78 O     0.94834   -0.01754   -0.21421
 79 O     0.86275   -0.06357   -0.20421
 80 O    -0.66012   -0.01216   -0.63853
 81 O    -0.69944    0.00826   -0.71878
 82 O    -0.31465   -0.01059   -0.88761
 83 O    -0.23419   -0.09167   -0.92708
 84 O     0.00784   -0.00166    0.03947
 85 O     0.01622    0.00093    0.03055
 86 Ti    0.05124   -0.00723   -0.01211
 87 Ti    0.06621   -0.00772    0.05691
 88 Ti   -0.00409    0.02918    0.05422
 89 Ti    0.00605   -0.01445    0.03304
 90 O    -0.00514   -0.00569   -0.01366
 91 O    -0.00128   -0.00918   -0.02111
 92 O    -0.00682   -0.00979   -0.02471
 93 O     0.00410   -0.01129    0.08351
 94 O     0.04611   -0.01964    0.06270
 95 O     0.02642    0.01094    0.04883
 96 O     0.01265   -0.02659    0.08020
 97 O    -0.02214    0.01298   -0.00995
 98 Ti   -0.06946    0.09866   -0.02469
 99 Ti    0.03933    0.01470    0.10409
100 Ti   -0.21237    0.06635    0.04441
101 Ti   -0.04901   -0.01964   -0.01530
102 O     0.02892   -0.02568    0.06329
103 O    -0.05426   -0.01380   -0.01355
104 O     0.07236    0.00586   -0.10384
105 O     0.01259   -0.06833   -0.13939
106 O     0.01379   -0.08989    0.18111
107 O    -0.05324   -0.06958    0.03139
108 V     0.08204    0.11062   -0.01934
109 V     0.01923   -0.15144   -0.04692
110 O     0.02326   -0.15384   -0.27102
111 O     0.01185   -0.01326    0.08983
112 O    -0.19050   -0.17691   -0.11223
[...]
  15 Ti     7.990489    1.908196   10.396729    ( 0.0000,  0.0000,  0.0000)
  16 Ti     0.513319    1.928842   11.229088    ( 0.0000,  0.0000,  0.0000)
  17 Ti     5.678890    0.006055   11.149834    ( 0.0000,  0.0000,  0.0000)
  18 O      0.929482    0.009086   11.107568    ( 0.0000,  0.0000,  0.0000)
  19 O      6.101776    1.916003   11.080562    ( 0.0000,  0.0000,  0.0000)
  20 O      9.051024    1.919959   12.000741    ( 0.0000,  0.0000,  0.0000)
  21 O      3.870188    0.018787   11.979918    ( 0.0000,  0.0000,  0.0000)
  22 O      7.591104   11.474091   10.499804    ( 0.0000,  0.0000,  0.0000)
  23 O      2.402772    1.922217   10.499245    ( 0.0000,  0.0000,  0.0000)
  24 O      0.930534    1.946305   13.189226    ( 0.0000,  0.0000,  0.0000)
  25 O      6.084536   11.481258   13.087429    ( 0.0000,  0.0000,  0.0000)
  26 Ti     4.176602   11.482148   14.017325    ( 0.0000,  0.0000,  0.0000)
  27 Ti     9.440077    1.883677   14.076799    ( 0.0000,  0.0000,  0.0000)
  28 Ti     1.885130    1.936711   14.803750    ( 0.0000,  0.0000,  0.0000)
  29 Ti     6.993447    0.013336   14.619445    ( 0.0000,  0.0000,  0.0000)
  30 O      2.354582    0.014036   14.792078    ( 0.0000,  0.0000,  0.0000)
  31 O      7.528395    1.883032   14.794305    ( 0.0000,  0.0000,  0.0000)
  32 O      0.197863    1.923968   15.563052    ( 0.0000,  0.0000,  0.0000)
  33 O      5.368314   11.476478   15.465180    ( 0.0000,  0.0000,  0.0000)
  34 O      9.035440    0.016077   14.089212    ( 0.0000,  0.0000,  0.0000)
  35 O      3.811551    1.945250   14.095034    ( 0.0000,  0.0000,  0.0000)
  36 O      8.476572    5.733518    6.000000    ( 0.0000,  0.0000,  0.0000)
  37 O      3.305699    3.822345    6.000000    ( 0.0000,  0.0000,  0.0000)
  38 Ti     1.412752    3.822345    6.752957    ( 0.0000,  0.0000,  0.0000)
  39 Ti     6.583625    5.733518    6.752957    ( 0.0000,  0.0000,  0.0000)
  40 Ti     9.522250    5.733518    7.640878    ( 0.0000,  0.0000,  0.0000)
  41 Ti     4.351376    3.822345    7.640878    ( 0.0000,  0.0000,  0.0000)
  42 O      9.861551    3.822345    7.505914    ( 0.0000,  0.0000,  0.0000)
  43 O      4.690678    5.733518    7.505914    ( 0.0000,  0.0000,  0.0000)
  44 O      7.629303    5.733518    8.393834    ( 0.0000,  0.0000,  0.0000)
  45 O      2.458430    3.822345    8.393834    ( 0.0000,  0.0000,  0.0000)
  46 O      6.244323    3.822345    6.887921    ( 0.0000,  0.0000,  0.0000)
  47 O      1.073450    5.733518    6.887921    ( 0.0000,  0.0000,  0.0000)
  48 O      9.794621    5.742235    9.598419    ( 0.0000,  0.0000,  0.0000)
  49 O      4.634719    3.832544    9.628074    ( 0.0000,  0.0000,  0.0000)
  50 Ti     2.785552    3.822501   10.330382    ( 0.0000,  0.0000,  0.0000)
  51 Ti     7.948701    5.742465   10.401930    ( 0.0000,  0.0000,  0.0000)
  52 Ti     0.518309    5.742672   11.143457    ( 0.0000,  0.0000,  0.0000)
  53 Ti     5.726730    3.811395   11.244778    ( 0.0000,  0.0000,  0.0000)
  54 O      0.922981    3.831417   11.081552    ( 0.0000,  0.0000,  0.0000)
  55 O      6.103197    5.742708   11.124879    ( 0.0000,  0.0000,  0.0000)
  56 O      9.038376    5.741488   11.976133    ( 0.0000,  0.0000,  0.0000)
  57 O      3.835832    3.813102   11.977143    ( 0.0000,  0.0000,  0.0000)
  58 O      7.572346    3.827041   10.517421    ( 0.0000,  0.0000,  0.0000)
  59 O      2.405648    5.741315   10.487694    ( 0.0000,  0.0000,  0.0000)
  60 O      0.894578    5.763052   13.093279    ( 0.0000,  0.0000,  0.0000)
  61 O      6.011928    3.775730   13.218247    ( 0.0000,  0.0000,  0.0000)
  62 Ti     4.119944    3.858388   13.852197    ( 0.0000,  0.0000,  0.0000)
  63 Ti     9.363101    5.748177   14.014483    ( 0.0000,  0.0000,  0.0000)
  64 Ti     1.820649    5.754989   14.624967    ( 0.0000,  0.0000,  0.0000)
  65 Ti     7.168554    3.802227   14.817973    ( 0.0000,  0.0000,  0.0000)
  66 O      2.341080    3.875901   14.823300    ( 0.0000,  0.0000,  0.0000)
  67 O      7.509759    5.746062   14.677980    ( 0.0000,  0.0000,  0.0000)
  68 O      0.179519    5.745307   15.461184    ( 0.0000,  0.0000,  0.0000)
  69 O      5.171916    4.059602   15.547020    ( 0.0000,  0.0000,  0.0000)
  70 O      8.964856    3.815868   14.098549    ( 0.0000,  0.0000,  0.0000)
  71 O      3.745401    5.756264   13.923705    ( 0.0000,  0.0000,  0.0000)
  72 O      8.476572    9.555862    6.000000    ( 0.0000,  0.0000,  0.0000)
  73 O      3.305699    7.644690    6.000000    ( 0.0000,  0.0000,  0.0000)
  74 Ti     1.412752    7.644690    6.752957    ( 0.0000,  0.0000,  0.0000)
  75 Ti     6.583625    9.555862    6.752957    ( 0.0000,  0.0000,  0.0000)
  76 Ti     9.522250    9.555862    7.640878    ( 0.0000,  0.0000,  0.0000)
  77 Ti     4.351376    7.644690    7.640878    ( 0.0000,  0.0000,  0.0000)
  78 O      9.861551    7.644690    7.505914    ( 0.0000,  0.0000,  0.0000)
  79 O      4.690678    9.555862    7.505914    ( 0.0000,  0.0000,  0.0000)
  80 O      7.629303    9.555862    8.393834    ( 0.0000,  0.0000,  0.0000)
  81 O      2.458430    7.644690    8.393834    ( 0.0000,  0.0000,  0.0000)
  82 O      6.244323    7.644690    6.887921    ( 0.0000,  0.0000,  0.0000)
  83 O      1.073450    9.555862    6.887921    ( 0.0000,  0.0000,  0.0000)
  84 O      9.810585    9.563716    9.620357    ( 0.0000,  0.0000,  0.0000)
  85 O      4.636695    7.648077    9.626409    ( 0.0000,  0.0000,  0.0000)
  86 Ti     2.786566    7.664892   10.330794    ( 0.0000,  0.0000,  0.0000)
  87 Ti     7.998133    9.575456   10.390603    ( 0.0000,  0.0000,  0.0000)
  88 Ti     0.521152    9.555857   11.245153    ( 0.0000,  0.0000,  0.0000)
  89 Ti     5.726627    7.674696   11.241810    ( 0.0000,  0.0000,  0.0000)
  90 O      0.925535    7.655755   11.077898    ( 0.0000,  0.0000,  0.0000)
  91 O      6.101562    9.568222   11.078914    ( 0.0000,  0.0000,  0.0000)
  92 O      9.053481    9.570115   12.001389    ( 0.0000,  0.0000,  0.0000)
  93 O      3.838787    7.677597   11.975058    ( 0.0000,  0.0000,  0.0000)
  94 O      7.574942    7.656122   10.517902    ( 0.0000,  0.0000,  0.0000)
  95 O      2.408024    9.563107   10.501678    ( 0.0000,  0.0000,  0.0000)
  96 O      0.935022    9.548127   13.196256    ( 0.0000,  0.0000,  0.0000)
  97 O      6.014985    7.730830   13.218031    ( 0.0000,  0.0000,  0.0000)
  98 Ti     4.135830    7.676833   13.851218    ( 0.0000,  0.0000,  0.0000)
  99 Ti     9.442061    9.614551   14.061833    ( 0.0000,  0.0000,  0.0000)
 100 Ti     1.872339    9.545408   14.853386    ( 0.0000,  0.0000,  0.0000)
 101 Ti     7.175641    7.696932   14.823493    ( 0.0000,  0.0000,  0.0000)
 102 O      2.352132    7.639938   14.859072    ( 0.0000,  0.0000,  0.0000)
 103 O      7.527783    9.612105   14.789529    ( 0.0000,  0.0000,  0.0000)
 104 O      0.181620    9.585466   15.558352    ( 0.0000,  0.0000,  0.0000)
 105 O      5.180730    7.449417   15.550616    ( 0.0000,  0.0000,  0.0000)
 106 O      8.968203    7.676789   14.097828    ( 0.0000,  0.0000,  0.0000)
 107 O      3.816051    9.555235   14.068095    ( 0.0000,  0.0000,  0.0000)
 108 V      5.699108    4.105959   17.220538    ( 0.0000,  0.0000,  0.0000)
 109 V      5.714675    7.382778   17.224080    ( 0.0000,  0.0000,  0.0000)
 110 O      2.649011    1.862686   16.935891    ( 0.0000,  0.0000,  0.0000)
 111 O      5.417914    5.742526   17.920359    ( 0.0000,  0.0000,  0.0000)
 112 O      2.730923    9.752074   16.899068    ( 0.0000,  0.0000,  0.0000)
 113 O      7.346948    3.788362   16.767840    ( 0.0000,  0.0000,  0.0000)
 114 O      4.992634    8.562418   18.070023    ( 0.0000,  0.0000,  0.0000)
 115 O      4.952440    2.925448   18.054886    ( 0.0000,  0.0000,  0.0000)
 116 O      7.364353    7.693062   16.765169    ( 0.0000,  0.0000,  0.0000)
 117 H      3.523828    9.279983   17.280643    ( 0.0000,  0.0000,  0.0000)
 118 H      2.886405   10.700864   17.084699    ( 0.0000,  0.0000,  0.0000)
 119 H      3.509871    2.226163   17.299855    ( 0.0000,  0.0000,  0.0000)
 120 H      1.950327    2.157945   17.550071    ( 0.0000,  0.0000,  0.0000)

Unit cell:
           periodic     x           y           z      points  spacing
  1. axis:    yes   10.341746    0.000000    0.000000    54     0.1915
  2. axis:    yes   -0.000000   11.467000    0.000000    60     0.1911
  3. axis:    no     0.000000    0.000000   23.497201   125     0.1880

  Lengths:  10.341746  11.467000  23.497201
  Angles:   90.000000  90.000000  90.000000

Effective grid spacing dv^(1/3) = 0.1902

                     log10-error:    total        iterations:
           time      wfs    density  energy       fermi  poisson
iter:   1  01:13:12  -3.20   +inf  -986.106731    2             
iter:   2  01:14:08  -4.13  -3.31  -986.104586    2             
iter:   3  01:15:05  -3.59  -3.33  -986.098497    3             
iter:   4  01:16:02  -4.99  -3.55  -986.097678    2             
iter:   5  01:16:59  -5.42  -3.58  -986.097694    2             
iter:   6  01:17:55  -4.59  -3.60  -986.096929    2             
iter:   7  01:18:52  -5.46  -3.84  -986.096583    2             
iter:   8  01:19:49  -5.57  -4.03  -986.096527    2             
iter:   9  01:20:46  -6.16  -4.26  -986.096537    2             
iter:  10  01:21:42  -6.41  -4.30  -986.096515    1             
iter:  11  01:22:39  -6.67  -4.42  -986.096505    2             
iter:  12  01:23:36  -7.30  -4.62  -986.096505    1             
iter:  13  01:24:33  -6.87  -4.68  -986.096508    1             
iter:  14  01:25:29  -7.56  -4.92  -986.096505    1             

Converged after 14 iterations.

Dipole moment: (-17.212334, -11.886390, -0.767451) |e|*Ang

Energy contributions relative to reference atoms: (reference = -1048982.797703)

Kinetic:       +697.239598
Potential:     -893.623161
External:        +0.000000
XC:            -797.597090
Entropy (-ST):   -0.000485
Local:           +7.884391
--------------------------
Free energy:   -986.096748
Extrapolated:  -986.096505

Fermi level: -0.55725

Showing only first 2 kpts
 Kpt  Band  Eigenvalues  Occupancy
  0   466     -1.63111    0.22222
  0   467     -1.62817    0.22222
  0   468      0.29391    0.00004
  0   469      0.45144    0.00001

  1   466     -1.64434    0.44444
  1   467     -1.61859    0.44443
  1   468      0.48840    0.00001
  1   469      0.59115    0.00000



Forces in eV/Ang:
  0 O    -1.81780    0.00769    1.55884
  1 O    -1.88450    0.00196    1.54129
  2 Ti    3.86039   -0.00168    2.02794
  3 Ti    3.86818   -0.01901    2.04871
  4 Ti   -1.98615   -0.04747   -1.66427
  5 Ti   -1.91258   -0.00245   -1.83984
  6 O     0.88781    0.01493   -0.18026
  7 O     0.84449    0.07363   -0.17496
  8 O    -0.59015    0.02328   -0.52070
  9 O    -0.69655    0.01335   -0.55534
 10 O    -0.28480   -0.00295   -0.88328
 11 O    -0.24015    0.11065   -0.91040
 12 O     0.00416   -0.00017    0.00267
 13 O     0.00114    0.00014    0.00988
 14 Ti    0.00335   -0.00065   -0.00531
 15 Ti    0.00319    0.00564    0.00235
 16 Ti   -0.00266    0.00502   -0.00374
 17 Ti   -0.00717   -0.00117   -0.01290
 18 O    -0.00254    0.00255   -0.00188
 19 O     0.00196    0.00171    0.00192
 20 O     0.00017   -0.00064   -0.00238
 21 O    -0.00271    0.00019    0.00180
 22 O    -0.00222    0.00308   -0.00302
 23 O     0.00102   -0.00088    0.00030
 24 O     0.00149   -0.00065    0.01137
 25 O    -0.00304   -0.00111    0.00759
 26 Ti   -0.00619   -0.00214   -0.00237
 27 Ti   -0.00241    0.00261   -0.00308
 28 Ti    0.00783    0.00269   -0.00488
 29 Ti    0.00248   -0.00405    0.00033
 30 O    -0.00518    0.00863    0.00340
 31 O    -0.00364    0.00453    0.00020
 32 O    -0.00334   -0.00096    0.00325
 33 O    -0.00197   -0.00203    0.00145
 34 O     0.00028    0.00247   -0.00237
 35 O    -0.00479   -0.00192    0.00205
 36 O    -1.84673    0.00097    1.55586
 37 O    -1.91254    0.00784    1.59190
 38 Ti    3.64611   -0.07050    1.78394
 39 Ti    3.86081    0.00004    2.03046
 40 Ti   -2.03881    0.00355   -1.84891
 41 Ti   -1.53504   -0.02650   -1.53818
 42 O     0.94969    0.02128   -0.18850
 43 O     0.81895    0.00632   -0.17961
 44 O    -0.66905    0.00812   -0.57875
 45 O    -0.69164    0.00573   -0.59591
 46 O    -0.33758    0.01472   -0.87242
 47 O    -0.20766   -0.00260   -0.87275
 48 O     0.00397   -0.00083    0.00158
 49 O    -0.00147   -0.00081    0.00281
 50 Ti    0.00497    0.00259    0.00237
 51 Ti   -0.00043   -0.00267    0.00193
 52 Ti   -0.00025   -0.00200    0.00087
 53 Ti   -0.00682    0.00325   -0.00346
 54 O     0.00020   -0.00108   -0.00205
 55 O    -0.00005    0.00177    0.00236
 56 O     0.00297    0.00003    0.00101
 57 O    -0.00001    0.00006    0.00193
 58 O    -0.00172    0.00092   -0.00143
 59 O     0.00365    0.00282   -0.00233
 60 O    -0.00131   -0.00014    0.00354
 61 O     0.00094    0.00167    0.00185
 62 Ti   -0.00427   -0.00348   -0.00648
 63 Ti   -0.00649   -0.00098   -0.00394
 64 Ti    0.00574    0.00163   -0.00510
 65 Ti   -0.00381    0.00138    0.00056
 66 O    -0.00128    0.00073   -0.00224
 67 O    -0.00139    0.00125   -0.00087
 68 O    -0.00210    0.00059    0.00614
 69 O     0.00880   -0.00195    0.01156
 70 O     0.00461    0.00420    0.00152
 71 O    -0.00256   -0.00055   -0.00493
 72 O    -1.82678   -0.00461    1.55492
 73 O    -1.91278   -0.00566    1.59004
 74 Ti    3.64576    0.07610    1.78677
 75 Ti    3.86266    0.02173    2.03372
 76 Ti   -1.95337    0.04110   -1.61387
 77 Ti   -1.53937    0.02573   -1.54759
 78 O     0.94881   -0.00487   -0.19438
 79 O     0.84621   -0.05325   -0.17667
 80 O    -0.59546   -0.00465   -0.52276
 81 O    -0.68280    0.01776   -0.59473
 82 O    -0.33458   -0.01130   -0.87212
 83 O    -0.24016   -0.10788   -0.91026
 84 O     0.00177    0.00171    0.00878
 85 O    -0.00355    0.00092    0.00054
 86 Ti    0.00183   -0.00421    0.00270
 87 Ti    0.00598   -0.00667    0.00038
 88 Ti   -0.00409   -0.00520   -0.00762
 89 Ti   -0.00566   -0.00644   -0.00139
 90 O    -0.00175   -0.00103   -0.00042
 91 O    -0.00006    0.00362    0.00344
 92 O    -0.00417    0.00115   -0.00465
 93 O    -0.00032   -0.00370    0.00456
 94 O    -0.00108    0.00203   -0.00098
 95 O    -0.00375    0.00406   -0.00008
 96 O     0.00292    0.00003    0.00603
 97 O    -0.00260    0.00178    0.00223
 98 Ti   -0.00407   -0.00240    0.00273
 99 Ti   -0.00557   -0.00246   -0.00047
100 Ti    0.00281   -0.01354   -0.00683
101 Ti   -0.00213    0.00044    0.00460
102 O    -0.00223    0.00280   -0.00040
103 O    -0.00195    0.00043    0.00282
104 O    -0.00383   -0.00023   -0.00143
105 O    -0.00484   -0.00452    0.00167
106 O    -0.00129    0.00475    0.00210
107 O    -0.00030    0.00347    0.00556
108 V    -0.00723   -0.01081   -0.00096
109 V     0.00947   -0.01027   -0.00756
110 O     0.00355   -0.00776    0.00079
111 O    -0.00853    0.00202    0.00077
112 O     0.00229   -0.00568    0.00490
113 O    -0.00440    0.00299    0.00302
114 O    -0.02524    0.01364    0.00474
115 O     0.01119    0.00397   -0.00593
116 O    -0.00756   -0.00006    0.00120
117 H    -0.02925    0.01632   -0.00546
118 H    -0.00495   -0.00874    0.00468
119 H     0.00885   -0.00066    0.00223
120 H    -0.00721    0.00306    0.00182

Timing:                                      incl.     excl.
-------------------------------------------------------------------
Density initialized from wave functions:   265.115   265.113   0.3% |
 Symmetrize density:                         0.002     0.002   0.0% |
Forces:                                   1807.392  1807.392   2.2% ||
Hamiltonian:                               101.950     1.825   0.0% |
 Atomic:                                    24.965     0.250   0.0% |
  XC Correction:                            24.716    24.716   0.0% |
 Calculate atomic Hamiltonians:             47.990    47.990   0.1% |
 Communicate:                               11.938    11.938   0.0% |
 Initialize Hamiltonian:                     0.001     0.001   0.0% |
 Poisson:                                    0.111     0.111   0.0% |
 XC 3D grid:                                15.120    15.120   0.0% |
LCAO initialization:                       193.767     1.876   0.0% |
 LCAO eigensolver:                          68.561     0.094   0.0% |
  Calculate projections:                     0.000     0.000   0.0% |
  DenseAtomicCorrection:                     0.001     0.001   0.0% |
  Distribute overlap matrix:                 5.301     5.301   0.0% |
  Orbital Layouts:                          56.614    56.614   0.1% |
  Potential matrix:                          0.036     0.036   0.0% |
  Sum over cells:                            6.515     6.515   0.0% |
 LCAO to grid:                             117.796   117.796   0.1% |
 Set positions (LCAO WFS):                   5.534     4.555   0.0% |
  Basic WFS set positions:                   0.003     0.003   0.0% |
  Basis functions set positions:             0.001     0.001   0.0% |
  P tci:                                     0.007     0.007   0.0% |
  ST tci:                                    0.661     0.661   0.0% |
  mktci:                                     0.307     0.307   0.0% |
PWDescriptor:                                0.181     0.181   0.0% |
Redistribute:                                0.233     0.233   0.0% |
SCF-cycle:                               78314.820     2.057   0.0% |
 Davidson:                               74445.404 17972.322  22.1% |--------|
  Apply H:                               10592.791 10181.398  12.5% |----|
   HMM T:                                  411.394   411.394   0.5% |
  Subspace diag:                          8177.115     0.998   0.0% |
   calc_h_matrix:                         4799.307  1272.070   1.6% ||
    Apply H:                              3527.237  3378.256   4.2% |-|
     HMM T:                                148.980   148.980   0.2% |
   diagonalize:                           1051.525  1051.525   1.3% ||
   rotate_psi:                            2325.285  2325.285   2.9% ||
  calc. matrices:                        16587.841  9625.278  11.9% |----|
   Apply H:                               6962.563  6710.008   8.3% |--|
    HMM T:                                 252.555   252.555   0.3% |
  diagonalize:                           16081.266 16081.266  19.8% |-------|
  rotate_psi:                             5034.069  5034.069   6.2% |-|
 Density:                                 2311.027     0.034   0.0% |
  Atomic density matrices:                  15.381    15.381   0.0% |
  Mix:                                     479.232   479.232   0.6% |
  Multipole moments:                         0.442     0.442   0.0% |
  Pseudo density:                         1815.937  1815.905   2.2% ||
   Symmetrize density:                       0.032     0.032   0.0% |
 Hamiltonian:                              877.257    15.723   0.0% |
  Atomic:                                  214.880     1.646   0.0% |
   XC Correction:                          213.234   213.234   0.3% |
  Calculate atomic Hamiltonians:           413.322   413.322   0.5% |
  Communicate:                             102.068   102.068   0.1% |
  Poisson:                                   0.895     0.895   0.0% |
  XC 3D grid:                              130.368   130.368   0.2% |
 Orthonormalize:                           679.075     0.156   0.0% |
  calc_s_matrix:                            65.436    65.436   0.1% |
  inverse-cholesky:                         57.267    57.267   0.1% |
  projections:                             436.705   436.705   0.5% |
  rotate_psi_s:                            119.510   119.510   0.1% |
Set symmetry:                                0.001     0.001   0.0% |
Other:                                     500.410   500.410   0.6% |
-------------------------------------------------------------------
Total:                                             81183.867 100.0%

Memory usage: 1.38 GiB
Date: Sun May 26 01:25:42 2019
