
  ___ ___ ___ _ _ _  
 |   |   |_  | | | | 
 | | | | | . | | | | 
 |__ |  _|___|_____|  1.5.1
 |___|_|             

User:   siva@s83n21.grendel.cscaa.dk
Date:   Fri May 24 19:03:55 2019
Arch:   x86_64
Pid:    12042
Python: 3.6.3
gpaw:   /home/siva/gpaw-1.5.1/gpaw
_gpaw:  /home/siva/gpaw-1.5.1/build/bin.linux-x86_64-3.6/gpaw-python
ase:    /home/siva/env1.5/lib/python3.6/site-packages/ase (version 3.17.0)
numpy:  /home/siva/env1.5/lib/python3.6/site-packages/numpy (version 1.16.0)
scipy:  /home/siva/env1.5/lib/python3.6/site-packages/scipy (version 1.2.0)
units:  Angstrom and eV
cores:  28
Extra parameters: {'blacs': True}

Input parameters:
  basis: dzp
  kpts: [3 3 1]
  mode: {ecut: 500.0,
         gammacentered: False,
         name: pw}
  xc: PBE

System changes: positions, numbers, cell, pbc, initial_charges, initial_magmoms 

Initialize ...

O-setup:
  name: Oxygen
  id: 32ecd46bf208036f09c70b0ec9a88b78
  Z: 8
  valence: 6
  core: 2
  charge: 0.0
  file: /home/wido/sw/gpaw/basis/gpaw-setups-0.9.20000/O.PBE.gz
  cutoffs: 0.67(comp), 1.17(filt), 0.83(core), lmax=2
  valence states:
                energy  radius
    2s(2.00)   -23.961   0.688
    2p(4.00)    -9.029   0.598
    *s           3.251   0.688
    *p          18.182   0.598
    *d           0.000   0.619

  LCAO basis set for O:
    Name: dzp
    File: /home/wido/sw/gpaw/basis/gpaw-setups-0.9.20000/O.dzp.basis.gz
    Number of radial functions: 5
    Number of spherical harmonics: 13
      l=0, rc=4.3438 Bohr: 2s-sz confined orbital
      l=1, rc=5.3906 Bohr: 2p-sz confined orbital
      l=0, rc=2.2969 Bohr: 2s-dz split-valence wave
      l=1, rc=2.8906 Bohr: 2p-dz split-valence wave
      l=2, rc=5.3906 Bohr: d-type Gaussian polarization

Ti-setup:
  name: Titanium
  id: d282db07e62ae71292040bf25b25ccdd
  Z: 22
  valence: 12
  core: 10
  charge: 0.0
  file: /home/wido/sw/gpaw/basis/gpaw-setups-0.9.20000/Ti.PBE.gz
  cutoffs: 1.22(comp), 2.23(filt), 1.02(core), lmax=2
  valence states:
                energy  radius
    3s(2.00)   -62.623   1.270
    4s(2.00)    -4.466   1.270
    3p(6.00)   -38.862   1.058
    4p(0.00)    -1.466   1.058
    3d(2.00)    -4.258   1.058
    *d          22.953   1.058

  LCAO basis set for Ti:
    Name: dzp
    File: /home/wido/sw/gpaw/basis/gpaw-setups-0.9.20000/Ti.dzp.basis.gz
    Number of radial functions: 11
    Number of spherical harmonics: 29
      l=0, rc=3.4375 Bohr: 3s-sz confined orbital
      l=0, rc=9.9062 Bohr: 4s-sz confined orbital
      l=1, rc=3.8906 Bohr: 3p-sz confined orbital
      l=1, rc=13.1094 Bohr: 4p-sz confined orbital
      l=2, rc=6.6250 Bohr: 3d-sz confined orbital
      l=0, rc=2.1406 Bohr: 3s-dz split-valence wave
      l=0, rc=6.0156 Bohr: 4s-dz split-valence wave
      l=1, rc=2.3125 Bohr: 3p-dz split-valence wave
      l=1, rc=8.1094 Bohr: 4p-dz split-valence wave
      l=2, rc=3.8594 Bohr: 3d-dz split-valence wave
      l=1, rc=9.9062 Bohr: p-type Gaussian polarization

V-setup:
  name: Vanadium
  id: a8354638d66c808f8c867a10b63fd727
  Z: 23
  valence: 13
  core: 10
  charge: 0.0
  file: /home/wido/sw/gpaw/basis/gpaw-setups-0.9.20000/V.PBE.gz
  cutoffs: 1.19(comp), 2.14(filt), 0.96(core), lmax=2
  valence states:
                energy  radius
    3s(2.00)   -70.222   1.254
    4s(2.00)    -4.702   1.254
    3p(6.00)   -44.043   1.281
    4p(0.00)    -1.444   1.281
    3d(3.00)    -5.164   1.169
    *d          22.047   1.169

  LCAO basis set for V:
    Name: dzp
    File: /home/wido/sw/gpaw/basis/gpaw-setups-0.9.20000/V.dzp.basis.gz
    Number of radial functions: 11
    Number of spherical harmonics: 29
      l=0, rc=3.2656 Bohr: 3s-sz confined orbital
      l=0, rc=9.5312 Bohr: 4s-sz confined orbital
      l=1, rc=3.6719 Bohr: 3p-sz confined orbital
      l=1, rc=12.8750 Bohr: 4p-sz confined orbital
      l=2, rc=6.0938 Bohr: 3d-sz confined orbital
      l=0, rc=2.0625 Bohr: 3s-dz split-valence wave
      l=0, rc=5.7656 Bohr: 4s-dz split-valence wave
      l=1, rc=2.4062 Bohr: 3p-dz split-valence wave
      l=1, rc=7.8906 Bohr: 4p-dz split-valence wave
      l=2, rc=3.6562 Bohr: 3d-dz split-valence wave
      l=1, rc=9.5312 Bohr: p-type Gaussian polarization

Reference energy: -1044851.132452

Spin-paired calculation

Occupation numbers:
  Fermi-Dirac: width=0.1000 eV

Convergence criteria:
  Maximum total energy change: 0.0005 eV / electron
  Maximum integral of absolute density change: 0.0001 electrons
  Maximum integral of absolute eigenstate change: 4e-08 eV^2
  Maximum number of iterations: 333

Symmetries present (total): 1

  ( 1  0  0)
  ( 0  1  0)
  ( 0  0  1)

9 k-points: 3 x 3 x 1 Monkhorst-Pack grid
5 k-points in the irreducible part of the Brillouin zone
       k-points in crystal coordinates                weights
   0:     0.00000000    0.00000000    0.00000000          1/9
   1:     0.00000000    0.33333333    0.00000000          2/9
   2:     0.33333333   -0.33333333    0.00000000          2/9
   3:     0.33333333    0.00000000    0.00000000          2/9
   4:     0.33333333    0.33333333    0.00000000          2/9

Wave functions: Plane wave expansion
  Cutoff energy: 500.000 eV
  Number of coefficients (min, max): 70673, 70768
  Pulay-stress correction: 0.000000 eV/Ang^3 (de/decut=0.000000)
  Using FFTW library
  ScaLapack parameters: grid=1x1, blocksize=None
  Wavefunction extrapolation:
    Improved wavefunction reuse through dual PAW basis 

Eigensolver
   Davidson(niter=2, smin=None, normalize=True) 

Densities:
  Coarse grid: 54*60*125 grid
  Fine grid: 108*120*250 grid
  Total Charge: 0.000000 

Density mixing:
  Method: separate
  Backend: pulay
  Linear mixing parameter: 0.05
  Mixing with 5 old densities
  Damping of long wave oscillations: 50 

Hamiltonian:
  XC and Coulomb potentials evaluated on a 108*120*250 grid
  Using the PBE Exchange-Correlation functional
 

XC parameters: PBE with 2 nearest neighbor stencil

Memory estimate:
  Process memory now: 275.13 MiB
  Calculator: 3687.11 MiB
    Density: 8.19 MiB
      Arrays: 2.89 MiB
      Localized functions: 4.19 MiB
      Mixer: 1.11 MiB
    Hamiltonian: 2.00 MiB
      Arrays: 1.89 MiB
      XC: 0.00 MiB
      Poisson: 0.00 MiB
      vbar: 0.11 MiB
    Wavefunctions: 3676.92 MiB
      Arrays psit_nG: 3001.94 MiB
      Eigensolver: 652.97 MiB
      Projections: 2.55 MiB
      Projectors: 2.51 MiB
      PW-descriptor: 16.94 MiB

Total number of cores used: 28
Domain decomposition: 2 x 2 x 7

Number of atoms: 115
Number of atomic orbitals: 2103
Number of bands in calculation: 556
Bands to converge: occupied states only
Number of valence electrons: 920

... initialized

Initializing position-dependent things.

Density initialized from atomic densities
Creating initial wave functions:
  556 bands from LCAO basis set

                                                
                                                
                                                
                                                
                                                
                                                
                           O                    
                     O   V O                    
             O                                  
                  TiO    O      O               
                 O V  O              Ti         
           O   Ti O          Ti   O             
               O      OiO    O                  
         O     OO   OTi    Tii   OTi            
             Tii   TiO    OOO   O               
             OO   OO    O Ti    Tii             
          O Ti     Ti   TiO  O O     O          
                OTiO   O      TiO               
           O    TiO   OTiO  O O    O Ti         
         Ti     O    O Oi    Ti     O           
              OTi          OTi    O             
             O O    O O         O Ti            
                    Ti     Oi     O             
             Oi     O    O      Ti              
           O     OTi    Ti     O                
          Ti          O      O                  
               O                                
                                                
                                                
                                                
                                                

Positions:
   0 O      8.476572    1.911173    6.000000    ( 0.0000,  0.0000,  0.0000)
   1 O      3.305699    0.000000    6.000000    ( 0.0000,  0.0000,  0.0000)
   2 Ti     1.412752    0.000000    6.752957    ( 0.0000,  0.0000,  0.0000)
   3 Ti     6.583625    1.911173    6.752957    ( 0.0000,  0.0000,  0.0000)
   4 Ti     9.522250    1.911173    7.640878    ( 0.0000,  0.0000,  0.0000)
   5 Ti     4.351376    0.000000    7.640878    ( 0.0000,  0.0000,  0.0000)
   6 O      9.861551    0.000000    7.505914    ( 0.0000,  0.0000,  0.0000)
   7 O      4.690678    1.911173    7.505914    ( 0.0000,  0.0000,  0.0000)
   8 O      7.629303    1.911173    8.393834    ( 0.0000,  0.0000,  0.0000)
   9 O      2.458430    0.000000    8.393834    ( 0.0000,  0.0000,  0.0000)
  10 O      6.244323    0.000000    6.887921    ( 0.0000,  0.0000,  0.0000)
  11 O      1.073450    1.911173    6.887921    ( 0.0000,  0.0000,  0.0000)
  12 O      9.813300    1.904255    9.610465    ( 0.0000,  0.0000,  0.0000)
  13 O      4.623264   11.470588    9.581049    ( 0.0000,  0.0000,  0.0000)
  14 Ti     2.714555   11.528607   10.339748    ( 0.0000,  0.0000,  0.0000)
  15 Ti     8.018847    1.909506   10.371963    ( 0.0000,  0.0000,  0.0000)
  16 Ti     0.503986    1.913915   11.288323    ( 0.0000,  0.0000,  0.0000)
  17 Ti     5.720595   11.394227   11.077734    ( 0.0000,  0.0000,  0.0000)
  18 O      0.901533   11.466011   11.105174    ( 0.0000,  0.0000,  0.0000)
  19 O      6.081668    1.913779   11.054855    ( 0.0000,  0.0000,  0.0000)
  20 O      9.012194    1.963928   11.974949    ( 0.0000,  0.0000,  0.0000)
  21 O      3.839656   11.455791   11.931253    ( 0.0000,  0.0000,  0.0000)
  22 O      7.577966   11.456038   10.452259    ( 0.0000,  0.0000,  0.0000)
  23 O      2.364814    1.911042   10.455169    ( 0.0000,  0.0000,  0.0000)
  24 O      0.867794    1.909915   13.186746    ( 0.0000,  0.0000,  0.0000)
  25 O      6.088979    0.118465   13.048780    ( 0.0000,  0.0000,  0.0000)
  26 Ti     4.096953    0.114292   13.798720    ( 0.0000,  0.0000,  0.0000)
  27 Ti     9.515485    1.947873   14.076222    ( 0.0000,  0.0000,  0.0000)
  28 Ti     1.960445    1.919476   14.993462    ( 0.0000,  0.0000,  0.0000)
  29 Ti     7.087156    0.021215   14.510977    ( 0.0000,  0.0000,  0.0000)
  30 O      2.382858    0.039729   14.782475    ( 0.0000,  0.0000,  0.0000)
  31 O      7.485527    1.904222   14.833765    ( 0.0000,  0.0000,  0.0000)
  32 O      0.214978    1.908335   15.584502    ( 0.0000,  0.0000,  0.0000)
  33 O      5.375007   11.206524   15.456121    ( 0.0000,  0.0000,  0.0000)
  34 O      9.029807    0.034592   13.976996    ( 0.0000,  0.0000,  0.0000)
  35 O      3.898687    1.904224   13.939882    ( 0.0000,  0.0000,  0.0000)
  36 O      8.476572    5.733518    6.000000    ( 0.0000,  0.0000,  0.0000)
  37 O      3.305699    3.822345    6.000000    ( 0.0000,  0.0000,  0.0000)
  38 Ti     1.412752    3.822345    6.752957    ( 0.0000,  0.0000,  0.0000)
  39 Ti     6.583625    5.733518    6.752957    ( 0.0000,  0.0000,  0.0000)
  40 Ti     9.522250    5.733518    7.640878    ( 0.0000,  0.0000,  0.0000)
  41 Ti     4.351376    3.822345    7.640878    ( 0.0000,  0.0000,  0.0000)
  42 O      9.861551    3.822345    7.505914    ( 0.0000,  0.0000,  0.0000)
  43 O      4.690678    5.733518    7.505914    ( 0.0000,  0.0000,  0.0000)
  44 O      7.629303    5.733518    8.393834    ( 0.0000,  0.0000,  0.0000)
  45 O      2.458430    3.822345    8.393834    ( 0.0000,  0.0000,  0.0000)
  46 O      6.244323    3.822345    6.887921    ( 0.0000,  0.0000,  0.0000)
  47 O      1.073450    5.733518    6.887921    ( 0.0000,  0.0000,  0.0000)
  48 O      9.813587    5.747041    9.615503    ( 0.0000,  0.0000,  0.0000)
  49 O      4.643880    3.830441    9.560096    ( 0.0000,  0.0000,  0.0000)
  50 Ti     2.698884    3.900221   10.317040    ( 0.0000,  0.0000,  0.0000)
  51 Ti     8.006111    5.736408   10.376556    ( 0.0000,  0.0000,  0.0000)
  52 Ti     0.489877    5.754525   11.283077    ( 0.0000,  0.0000,  0.0000)
  53 Ti     5.734919    3.749952   11.050860    ( 0.0000,  0.0000,  0.0000)
  54 O      0.907847    3.836465   11.102198    ( 0.0000,  0.0000,  0.0000)
  55 O      6.086570    5.735679   11.076842    ( 0.0000,  0.0000,  0.0000)
  56 O      9.012277    5.725830   11.983281    ( 0.0000,  0.0000,  0.0000)
  57 O      3.868380    3.832666   11.873062    ( 0.0000,  0.0000,  0.0000)
  58 O      7.576321    3.824319   10.436744    ( 0.0000,  0.0000,  0.0000)
  59 O      2.368353    5.742632   10.453585    ( 0.0000,  0.0000,  0.0000)
  60 O      0.852111    5.769669   13.211070    ( 0.0000,  0.0000,  0.0000)
  61 O      6.118879    3.808071   13.072657    ( 0.0000,  0.0000,  0.0000)
  62 Ti     4.055565    3.947833   13.717804    ( 0.0000,  0.0000,  0.0000)
  63 Ti     9.518082    5.712838   14.084342    ( 0.0000,  0.0000,  0.0000)
  64 Ti     1.954738    5.761301   15.008454    ( 0.0000,  0.0000,  0.0000)
  65 Ti     6.987165    3.780209   14.597820    ( 0.0000,  0.0000,  0.0000)
  66 O      2.321546    3.839747   14.383201    ( 0.0000,  0.0000,  0.0000)
  67 O      7.385059    5.701933   14.800689    ( 0.0000,  0.0000,  0.0000)
  68 O      0.210014    5.756304   15.607403    ( 0.0000,  0.0000,  0.0000)
  69 O      5.211149    3.828310   15.509636    ( 0.0000,  0.0000,  0.0000)
  70 O      8.963410    3.837446   14.140032    ( 0.0000,  0.0000,  0.0000)
  71 O      3.893347    5.781139   13.941722    ( 0.0000,  0.0000,  0.0000)
  72 O      8.476572    9.555862    6.000000    ( 0.0000,  0.0000,  0.0000)
  73 O      3.305699    7.644690    6.000000    ( 0.0000,  0.0000,  0.0000)
  74 Ti     1.412752    7.644690    6.752957    ( 0.0000,  0.0000,  0.0000)
  75 Ti     6.583625    9.555862    6.752957    ( 0.0000,  0.0000,  0.0000)
  76 Ti     9.522250    9.555862    7.640878    ( 0.0000,  0.0000,  0.0000)
  77 Ti     4.351376    7.644690    7.640878    ( 0.0000,  0.0000,  0.0000)
  78 O      9.861551    7.644690    7.505914    ( 0.0000,  0.0000,  0.0000)
  79 O      4.690678    9.555862    7.505914    ( 0.0000,  0.0000,  0.0000)
  80 O      7.629303    9.555862    8.393834    ( 0.0000,  0.0000,  0.0000)
  81 O      2.458430    7.644690    8.393834    ( 0.0000,  0.0000,  0.0000)
  82 O      6.244323    7.644690    6.887921    ( 0.0000,  0.0000,  0.0000)
  83 O      1.073450    9.555862    6.887921    ( 0.0000,  0.0000,  0.0000)
  84 O      9.807145    9.559831    9.620861    ( 0.0000,  0.0000,  0.0000)
  85 O      4.633999    7.652379    9.594220    ( 0.0000,  0.0000,  0.0000)
  86 Ti     2.748982    7.722811   10.324588    ( 0.0000,  0.0000,  0.0000)
  87 Ti     8.031235    9.551155   10.352923    ( 0.0000,  0.0000,  0.0000)
  88 Ti     0.511013    9.546795   11.337960    ( 0.0000,  0.0000,  0.0000)
  89 Ti     5.733526    7.583090   11.135570    ( 0.0000,  0.0000,  0.0000)
  90 O      0.903963    7.655547   11.108539    ( 0.0000,  0.0000,  0.0000)
  91 O      6.080975    9.557453   11.092363    ( 0.0000,  0.0000,  0.0000)
  92 O      9.046863    9.526980   12.004191    ( 0.0000,  0.0000,  0.0000)
  93 O      3.850716    7.662103   11.935373    ( 0.0000,  0.0000,  0.0000)
  94 O      7.570623    7.648619   10.451629    ( 0.0000,  0.0000,  0.0000)
  95 O      2.373244    9.554315   10.451542    ( 0.0000,  0.0000,  0.0000)
  96 O      0.932947    9.573550   13.236463    ( 0.0000,  0.0000,  0.0000)
  97 O      6.088392    7.609667   13.123586    ( 0.0000,  0.0000,  0.0000)
  98 Ti     4.151130    7.723409   13.791714    ( 0.0000,  0.0000,  0.0000)
  99 Ti     9.472652    9.615959   14.086867    ( 0.0000,  0.0000,  0.0000)
 100 Ti     1.945451    9.548097   15.000666    ( 0.0000,  0.0000,  0.0000)
 101 Ti     7.139671    7.548897   14.659865    ( 0.0000,  0.0000,  0.0000)
 102 O      2.377346    7.641376   14.793771    ( 0.0000,  0.0000,  0.0000)
 103 O      7.576080    9.638221   14.774980    ( 0.0000,  0.0000,  0.0000)
 104 O      0.216534    9.566930   15.616050    ( 0.0000,  0.0000,  0.0000)
 105 O      5.344288    7.991751   15.468318    ( 0.0000,  0.0000,  0.0000)
 106 O      8.988216    7.630968   14.137767    ( 0.0000,  0.0000,  0.0000)
 107 O      3.819315    9.560875   13.929839    ( 0.0000,  0.0000,  0.0000)
 108 V      4.892978    9.588748   16.262915    ( 0.0000,  0.0000,  0.0000)
 109 V      3.864790    3.825913   16.802541    ( 0.0000,  0.0000,  0.0000)
 110 O      4.509921    3.821699   18.257910    ( 0.0000,  0.0000,  0.0000)
 111 O      3.196052    9.583011   16.563677    ( 0.0000,  0.0000,  0.0000)
 112 O      2.858433    2.371457   16.562679    ( 0.0000,  0.0000,  0.0000)
 113 O      5.766870    9.532505   17.622318    ( 0.0000,  0.0000,  0.0000)
 114 O      2.860427    5.286206   16.566713    ( 0.0000,  0.0000,  0.0000)

Unit cell:
           periodic     x           y           z      points  spacing
  1. axis:    yes   10.341746    0.000000    0.000000    54     0.1915
  2. axis:    yes   -0.000000   11.467000    0.000000    60     0.1911
  3. axis:    no     0.000000    0.000000   23.497201   125     0.1880

  Lengths:  10.341746  11.467000  23.497201
  Angles:   90.000000  90.000000  90.000000

Effective grid spacing dv^(1/3) = 0.1902

                     log10-error:    total        iterations:
           time      wfs    density  energy       fermi  poisson
iter:   1  19:08:02  -0.12   +inf  -1092.617266    0             
iter:   2  19:08:57  -1.03  -0.96  -1045.225020    2             
iter:   3  19:09:51  +0.45  -1.01  -950.942101    5             
iter:   4  19:10:46  -1.00  -1.35  -965.268004    3             
iter:   5  19:11:40  -1.09  -1.27  -983.200106    3             
iter:   6  19:12:35  -0.13  -1.24  -972.063368    5             
iter:   7  19:13:30  -0.59  -1.64  -971.128868    4             
iter:   8  19:14:24  -1.62  -1.62  -963.072608    1             
iter:   9  19:15:19  -0.89  -1.70  -956.331802    5             
iter:  10  19:16:13  -1.87  -2.09  -957.163402    2             
iter:  11  19:17:08  -2.59  -2.06  -956.870221    2             
iter:  12  19:18:02  -1.66  -2.11  -955.950661    3             
iter:  13  19:18:57  -2.29  -2.27  -955.982151    2             
iter:  14  19:19:52  -2.94  -2.30  -955.921221    2             
iter:  15  19:20:46  -3.00  -2.32  -955.878177    3             
iter:  16  19:21:41  -3.05  -2.56  -955.880889    3             
iter:  17  19:22:35  -3.55  -2.76  -955.877149    2             
iter:  18  19:23:30  -3.86  -2.85  -955.874574    2             
iter:  19  19:24:24  -3.84  -2.93  -955.867858    2             
iter:  20  19:25:19  -4.52  -3.17  -955.866647    2             
iter:  21  19:26:13  -4.44  -3.20  -955.866648    2             
iter:  22  19:27:08  -4.43  -3.21  -955.865591    2             
iter:  23  19:28:03  -5.51  -3.46  -955.865460    1             
iter:  24  19:28:57  -4.67  -3.47  -955.866015    2             
iter:  25  19:29:52  -5.05  -3.58  -955.865591    1             
iter:  26  19:30:46  -6.00  -3.85  -955.865574    2             
iter:  27  19:31:41  -6.29  -3.92  -955.865563    1             
iter:  28  19:32:35  -6.13  -4.01  -955.865554    1             
iter:  29  19:33:30  -6.32  -4.19  -955.865554    2             
iter:  30  19:34:24  -6.48  -4.38  -955.865535    2             
iter:  31  19:35:19  -7.12  -4.64  -955.865532    1             
iter:  32  19:36:14  -7.63  -4.68  -955.865530    1             

Converged after 32 iterations.

Dipole moment: (-13.641394, -9.967950, -1.659261) |e|*Ang

Energy contributions relative to reference atoms: (reference = -1044851.132452)

Kinetic:       +667.705408
Potential:     -860.173476
External:        +0.000000
XC:            -771.150304
Entropy (-ST):   -0.000508
Local:           +7.753096
--------------------------
Free energy:   -955.865784
Extrapolated:  -955.865530

Fermi level: -0.79032

Showing only first 2 kpts
 Kpt  Band  Eigenvalues  Occupancy
  0   458     -1.86207    0.22222
  0   459     -1.85164    0.22222
  0   460      0.06132    0.00004
  0   461      0.23091    0.00001

  1   458     -1.87428    0.44444
  1   459     -1.84257    0.44443
  1   460      0.24460    0.00001
  1   461      0.36673    0.00000



Forces in eV/Ang:
  0 O    -1.85146   -0.00125    1.55674
  1 O    -1.98789   -0.00284    1.58976
  2 Ti    3.67557    0.01307    1.76532
  3 Ti    3.89621    0.02191    1.98096
  4 Ti   -1.95750   -0.01663   -1.60831
  5 Ti   -1.63382    0.02317   -1.99476
  6 O     0.93589   -0.03585   -0.21813
  7 O     0.83694   -0.02010   -0.21712
  8 O    -0.66234   -0.00532   -0.77114
  9 O    -0.75881   -0.00219   -0.63567
 10 O    -0.31080   -0.04825   -0.83276
 11 O    -0.19915    0.03368   -0.89788
 12 O    -0.07518    0.00117    0.06683
 13 O    -0.12299    0.00417   -0.00002
 14 Ti    0.07422   -0.08194   -0.02719
 15 Ti   -0.10504   -0.01654   -0.06556
 16 Ti    0.05892   -0.00278   -0.03184
 17 Ti   -0.08667    0.16505    0.15755
 18 O     0.08877    0.00894    0.02799
 19 O     0.22620   -0.10407   -0.16744
 20 O    -0.00058   -0.01603    0.18491
 21 O     0.01926   -0.01993   -0.18419
 22 O     0.10339    0.00490    0.08891
 23 O    -0.05422    0.13719    0.16991
 24 O     0.12476    0.04631   -0.04878
 25 O    -0.01288   -0.08035   -0.05950
 26 Ti    0.14781   -0.16696    0.21777
 27 Ti   -0.16061   -0.06385   -0.02087
 28 Ti    0.08810   -0.00937   -0.14390
 29 Ti   -0.11489    0.11443    0.17278
 30 O     0.06947   -0.02036   -0.06796
 31 O     0.01449    0.06263    0.16002
 32 O    -0.10083    0.04046   -0.09261
 33 O     0.00962    0.13952   -0.30562
 34 O    -0.19855    0.06349    0.24826
 35 O    -0.08155    0.16268    0.05912
 36 O    -1.83012    0.00467    1.57696
 37 O    -2.07536    0.00402    1.56623
 38 Ti    3.61475   -0.01388    1.62967
 39 Ti    3.87090   -0.03404    1.98150
 40 Ti   -1.97656   -0.00001   -1.62562
 41 Ti   -1.44986   -0.03122   -2.09917
 42 O     0.95404    0.02872   -0.18989
 43 O     0.83522    0.05559   -0.21976
 44 O    -0.63474    0.01191   -0.70888
 45 O    -0.75710    0.00684   -0.64095
 46 O    -0.32465    0.01256   -0.86269
 47 O    -0.20282   -0.01066   -0.87435
 48 O    -0.10582   -0.00191    0.08434
 49 O    -0.19696    0.01631   -0.01246
 50 Ti    0.08752   -0.13265   -0.05087
 51 Ti   -0.08905   -0.02509   -0.13533
 52 Ti    0.12927   -0.01689   -0.05215
 53 Ti   -0.07067    0.08826    0.13369
 54 O     0.09713    0.02293    0.00943
 55 O     0.22160   -0.06367   -0.09617
 56 O    -0.04029    0.04468    0.23075
 57 O     0.04791    0.00715   -0.10416
 58 O     0.12657    0.00842   -0.04762
 59 O    -0.04288    0.12243    0.17525
 60 O     0.07434   -0.02045   -0.12263
 61 O    -0.09794    0.00795    0.07057
 62 Ti    0.14951   -0.19766    0.08404
 63 Ti    0.09655   -0.04867   -0.04759
 64 Ti    0.09076   -0.01540   -0.11047
 65 Ti   -0.03536   -0.34358   -0.03499
 66 O    -0.16671    0.03294    0.34648
 67 O     0.23666    0.52600    0.53969
 68 O    -0.13602   -0.05711   -0.21463
 69 O     0.07852    0.00844   -0.01876
 70 O    -0.24508    0.05382    0.02000
 71 O    -0.06622    0.11081    0.06715
 72 O    -1.86448   -0.00173    1.58055
 73 O    -1.98219    0.00273    1.59994
 74 Ti    3.64797    0.02590    1.72494
 75 Ti    3.81351    0.00229    1.89745
 76 Ti   -1.83255    0.02724   -1.56390
 77 Ti   -1.53816   -0.03674   -1.86025
 78 O     0.94430    0.01912   -0.21098
 79 O     0.85864   -0.01673   -0.21181
 80 O    -0.67666   -0.01728   -0.62464
 81 O    -0.71471    0.00043   -0.62982
 82 O    -0.31989    0.03690   -0.88967
 83 O    -0.22897   -0.03129   -0.85482
 84 O    -0.03937   -0.00355    0.08089
 85 O    -0.09507   -0.00863    0.03763
 86 Ti   -0.02670   -0.11336   -0.03806
 87 Ti   -0.07563    0.04056   -0.00018
 88 Ti    0.12483    0.04668   -0.05577
 89 Ti   -0.11729    0.11895   -0.17589
 90 O     0.15795   -0.03825    0.02256
 91 O     0.24088   -0.15787   -0.07009
 92 O    -0.06347   -0.01335    0.22551
 93 O     0.12944   -0.00589   -0.07969
 94 O     0.06613   -0.00609    0.11620
 95 O    -0.04409    0.07434    0.16067
 96 O    -0.07118   -0.01480   -0.18409
 97 O     0.57077   -0.10096    0.48358
 98 Ti   -0.16359    0.00867    0.32340
 99 Ti    0.18025   -0.01761    0.15999
100 Ti    0.13482    0.07427    0.24856
101 Ti   -1.11258    0.57426   -1.33446
102 O     0.14880   -0.02634   -0.03880
103 O     0.09923   -0.68253    0.15662
104 O    -0.01127    0.08511   -0.36447
105 O     0.59571   -0.51546   -0.14212
106 O    -0.38585   -0.02030    0.11723
107 O    -0.09008    0.01868    0.04443
108 V     0.63973    0.17236    1.24656
109 V    -0.02573   -0.02018    0.30107
110 O    -0.11215    0.00517   -0.30955
111 O    -0.23834   -0.00412   -0.05858
112 O     0.21496    0.17820    0.17210
113 O    -0.87278    0.19230   -0.68248
114 O     0.21301   -0.14320    0.15393

System changes: positions 

Initializing position-dependent things.

Density initialized from wave functions
                                                
                                                
                                                
                                                
                                                
                                                
                           O                    
                     O   V O                    
             O                                  
                  TiO    O      O               
                 O V  O              Ti         
           O   Ti O          Ti   O             
               O      OiO    O                  
         O     OO   OTi    Tii   OTi            
             Tii   TiO    OOO   O               
             OO   OO    O Ti    Tii             
          O Ti     Ti   TiO  O O     O          
                OTiO   O      TiO               
           O    TiO   OTiO  O O    O Ti         
         Ti     O    O Oi    Ti     O           
              OTi          OTi    O             
             O O    O O         O Ti            
                    Ti     Oi     O             
             Oi     O    O      Ti              
           O     OTi    Ti     O                
          Ti          O      O                  
               O                                
                                                
                                                
                                                
                                                

Positions:
   0 O      8.476572    1.911173    6.000000    ( 0.0000,  0.0000,  0.0000)
   1 O      3.305699    0.000000    6.000000    ( 0.0000,  0.0000,  0.0000)
   2 Ti     1.412752    0.000000    6.752957    ( 0.0000,  0.0000,  0.0000)
   3 Ti     6.583625    1.911173    6.752957    ( 0.0000,  0.0000,  0.0000)
   4 Ti     9.522250    1.911173    7.640878    ( 0.0000,  0.0000,  0.0000)
   5 Ti     4.351376    0.000000    7.640878    ( 0.0000,  0.0000,  0.0000)
   6 O      9.861551    0.000000    7.505914    ( 0.0000,  0.0000,  0.0000)
   7 O      4.690678    1.911173    7.505914    ( 0.0000,  0.0000,  0.0000)
   8 O      7.629303    1.911173    8.393834    ( 0.0000,  0.0000,  0.0000)
   9 O      2.458430    0.000000    8.393834    ( 0.0000,  0.0000,  0.0000)
  10 O      6.244323    0.000000    6.887921    ( 0.0000,  0.0000,  0.0000)
  11 O      1.073450    1.911173    6.887921    ( 0.0000,  0.0000,  0.0000)
  12 O      9.812225    1.904272    9.611420    ( 0.0000,  0.0000,  0.0000)
  13 O      4.621507   11.470648    9.581048    ( 0.0000,  0.0000,  0.0000)
  14 Ti     2.715616   11.527437   10.339359    ( 0.0000,  0.0000,  0.0000)
  15 Ti     8.017347    1.909270   10.371026    ( 0.0000,  0.0000,  0.0000)
  16 Ti     0.504828    1.913875   11.287868    ( 0.0000,  0.0000,  0.0000)
  17 Ti     5.719357   11.396585   11.079985    ( 0.0000,  0.0000,  0.0000)
  18 O      0.902801   11.466138   11.105574    ( 0.0000,  0.0000,  0.0000)
  19 O      6.084900    1.912292   11.052464    ( 0.0000,  0.0000,  0.0000)
  20 O      9.012186    1.963699   11.977591    ( 0.0000,  0.0000,  0.0000)
  21 O      3.839931   11.455506   11.928622    ( 0.0000,  0.0000,  0.0000)
  22 O      7.579443   11.456108   10.453530    ( 0.0000,  0.0000,  0.0000)
  23 O      2.364040    1.913002   10.457597    ( 0.0000,  0.0000,  0.0000)
  24 O      0.869576    1.910577   13.186049    ( 0.0000,  0.0000,  0.0000)
  25 O      6.088795    0.117317   13.047930    ( 0.0000,  0.0000,  0.0000)
  26 Ti     4.099064    0.111907   13.801831    ( 0.0000,  0.0000,  0.0000)
  27 Ti     9.513191    1.946961   14.075924    ( 0.0000,  0.0000,  0.0000)
  28 Ti     1.961704    1.919342   14.991407    ( 0.0000,  0.0000,  0.0000)
  29 Ti     7.085515    0.022850   14.513445    ( 0.0000,  0.0000,  0.0000)
  30 O      2.383851    0.039438   14.781504    ( 0.0000,  0.0000,  0.0000)
  31 O      7.485734    1.905116   14.836051    ( 0.0000,  0.0000,  0.0000)
  32 O      0.213538    1.908913   15.583179    ( 0.0000,  0.0000,  0.0000)
  33 O      5.375144   11.208517   15.451755    ( 0.0000,  0.0000,  0.0000)
  34 O      9.026971    0.035500   13.980543    ( 0.0000,  0.0000,  0.0000)
  35 O      3.897522    1.906548   13.940727    ( 0.0000,  0.0000,  0.0000)
  36 O      8.476572    5.733518    6.000000    ( 0.0000,  0.0000,  0.0000)
  37 O      3.305699    3.822345    6.000000    ( 0.0000,  0.0000,  0.0000)
  38 Ti     1.412752    3.822345    6.752957    ( 0.0000,  0.0000,  0.0000)
  39 Ti     6.583625    5.733518    6.752957    ( 0.0000,  0.0000,  0.0000)
  40 Ti     9.522250    5.733518    7.640878    ( 0.0000,  0.0000,  0.0000)
  41 Ti     4.351376    3.822345    7.640878    ( 0.0000,  0.0000,  0.0000)
  42 O      9.861551    3.822345    7.505914    ( 0.0000,  0.0000,  0.0000)
  43 O      4.690678    5.733518    7.505914    ( 0.0000,  0.0000,  0.0000)
  44 O      7.629303    5.733518    8.393834    ( 0.0000,  0.0000,  0.0000)
  45 O      2.458430    3.822345    8.393834    ( 0.0000,  0.0000,  0.0000)
  46 O      6.244323    3.822345    6.887921    ( 0.0000,  0.0000,  0.0000)
  47 O      1.073450    5.733518    6.887921    ( 0.0000,  0.0000,  0.0000)
  48 O      9.812075    5.747013    9.616708    ( 0.0000,  0.0000,  0.0000)
  49 O      4.641066    3.830674    9.559918    ( 0.0000,  0.0000,  0.0000)
  50 Ti     2.700134    3.898326   10.316313    ( 0.0000,  0.0000,  0.0000)
  51 Ti     8.004839    5.736050   10.374623    ( 0.0000,  0.0000,  0.0000)
  52 Ti     0.491723    5.754283   11.282332    ( 0.0000,  0.0000,  0.0000)
  53 Ti     5.733909    3.751213   11.052770    ( 0.0000,  0.0000,  0.0000)
  54 O      0.909234    3.836792   11.102332    ( 0.0000,  0.0000,  0.0000)
  55 O      6.089736    5.734770   11.075468    ( 0.0000,  0.0000,  0.0000)
  56 O      9.011701    5.726468   11.986578    ( 0.0000,  0.0000,  0.0000)
  57 O      3.869065    3.832768   11.871574    ( 0.0000,  0.0000,  0.0000)
  58 O      7.578130    3.824439   10.436064    ( 0.0000,  0.0000,  0.0000)
  59 O      2.367740    5.744381   10.456089    ( 0.0000,  0.0000,  0.0000)
  60 O      0.853173    5.769377   13.209319    ( 0.0000,  0.0000,  0.0000)
  61 O      6.117480    3.808185   13.073665    ( 0.0000,  0.0000,  0.0000)
  62 Ti     4.057701    3.945009   13.719004    ( 0.0000,  0.0000,  0.0000)
  63 Ti     9.519462    5.712143   14.083662    ( 0.0000,  0.0000,  0.0000)
  64 Ti     1.956035    5.761081   15.006876    ( 0.0000,  0.0000,  0.0000)
  65 Ti     6.986660    3.775300   14.597320    ( 0.0000,  0.0000,  0.0000)
  66 O      2.319164    3.840217   14.388151    ( 0.0000,  0.0000,  0.0000)
  67 O      7.388440    5.709447   14.808399    ( 0.0000,  0.0000,  0.0000)
  68 O      0.208071    5.755488   15.604337    ( 0.0000,  0.0000,  0.0000)
  69 O      5.212271    3.828431   15.509368    ( 0.0000,  0.0000,  0.0000)
  70 O      8.959909    3.838215   14.140318    ( 0.0000,  0.0000,  0.0000)
  71 O      3.892401    5.782722   13.942681    ( 0.0000,  0.0000,  0.0000)
  72 O      8.476572    9.555862    6.000000    ( 0.0000,  0.0000,  0.0000)
  73 O      3.305699    7.644690    6.000000    ( 0.0000,  0.0000,  0.0000)
  74 Ti     1.412752    7.644690    6.752957    ( 0.0000,  0.0000,  0.0000)
  75 Ti     6.583625    9.555862    6.752957    ( 0.0000,  0.0000,  0.0000)
  76 Ti     9.522250    9.555862    7.640878    ( 0.0000,  0.0000,  0.0000)
  77 Ti     4.351376    7.644690    7.640878    ( 0.0000,  0.0000,  0.0000)
  78 O      9.861551    7.644690    7.505914    ( 0.0000,  0.0000,  0.0000)
  79 O      4.690678    9.555862    7.505914    ( 0.0000,  0.0000,  0.0000)
  80 O      7.629303    9.555862    8.393834    ( 0.0000,  0.0000,  0.0000)
  81 O      2.458430    7.644690    8.393834    ( 0.0000,  0.0000,  0.0000)
  82 O      6.244323    7.644690    6.887921    ( 0.0000,  0.0000,  0.0000)
  83 O      1.073450    9.555862    6.887921    ( 0.0000,  0.0000,  0.0000)
  84 O      9.806583    9.559780    9.622016    ( 0.0000,  0.0000,  0.0000)
  85 O      4.632641    7.652256    9.594758    ( 0.0000,  0.0000,  0.0000)
  86 Ti     2.748600    7.721191   10.324045    ( 0.0000,  0.0000,  0.0000)
  87 Ti     8.030154    9.551735   10.352921    ( 0.0000,  0.0000,  0.0000)
  88 Ti     0.512796    9.547462   11.337163    ( 0.0000,  0.0000,  0.0000)
  89 Ti     5.731850    7.584789   11.133057    ( 0.0000,  0.0000,  0.0000)
  90 O      0.906220    7.655000   11.108862    ( 0.0000,  0.0000,  0.0000)
  91 O      6.084416    9.555198   11.091361    ( 0.0000,  0.0000,  0.0000)
  92 O      9.045956    9.526789   12.007413    ( 0.0000,  0.0000,  0.0000)
  93 O      3.852565    7.662019   11.934235    ( 0.0000,  0.0000,  0.0000)
  94 O      7.571567    7.648533   10.453289    ( 0.0000,  0.0000,  0.0000)
  95 O      2.372614    9.555377   10.453838    ( 0.0000,  0.0000,  0.0000)
  96 O      0.931930    9.573339   13.233833    ( 0.0000,  0.0000,  0.0000)
  97 O      6.096546    7.608225   13.130494    ( 0.0000,  0.0000,  0.0000)
  98 Ti     4.148793    7.723533   13.796333    ( 0.0000,  0.0000,  0.0000)
  99 Ti     9.475227    9.615707   14.089153    ( 0.0000,  0.0000,  0.0000)
 100 Ti     1.947377    9.549158   15.004217    ( 0.0000,  0.0000,  0.0000)
 101 Ti     7.123777    7.557101   14.640801    ( 0.0000,  0.0000,  0.0000)
 102 O      2.379472    7.641000   14.793216    ( 0.0000,  0.0000,  0.0000)
 103 O      7.577498    9.628470   14.777217    ( 0.0000,  0.0000,  0.0000)
 104 O      0.216373    9.568146   15.610844    ( 0.0000,  0.0000,  0.0000)
 105 O      5.352798    7.984387   15.466288    ( 0.0000,  0.0000,  0.0000)
 106 O      8.982704    7.630678   14.139441    ( 0.0000,  0.0000,  0.0000)
 107 O      3.818028    9.561142   13.930474    ( 0.0000,  0.0000,  0.0000)
 108 V      4.902117    9.591210   16.280723    ( 0.0000,  0.0000,  0.0000)
 109 V      3.864422    3.825625   16.806842    ( 0.0000,  0.0000,  0.0000)
 110 O      4.508318    3.821773   18.253488    ( 0.0000,  0.0000,  0.0000)
 111 O      3.192647    9.582953   16.562840    ( 0.0000,  0.0000,  0.0000)
 112 O      2.861504    2.374002   16.565138    ( 0.0000,  0.0000,  0.0000)
 113 O      5.754401    9.535252   17.612568    ( 0.0000,  0.0000,  0.0000)
 114 O      2.863470    5.284160   16.568912    ( 0.0000,  0.0000,  0.0000)

Unit cell:
           periodic     x           y           z      points  spacing
  1. axis:    yes   10.341746    0.000000    0.000000    54     0.1915
  2. axis:    yes   -0.000000   11.467000    0.000000    60     0.1911
  3. axis:    no     0.000000    0.000000   23.497201   125     0.1880

  Lengths:  10.341746  11.467000  23.497201
  Angles:   90.000000  90.000000  90.000000

Effective grid spacing dv^(1/3) = 0.1902

                     log10-error:    total        iterations:
           time      wfs    density  energy       fermi  poisson
iter:   1  19:37:28  -2.50   +inf  -956.060162    3             
iter:   2  19:38:23  -3.43  -3.06  -956.038956    2             
iter:   3  19:39:17  -2.75  -3.10  -956.000973    3             
iter:   4  19:40:12  -4.19  -3.27  -955.994172    2             
iter:   5  19:41:06  -4.36  -3.37  -955.994227    2             
iter:   6  19:42:01  -3.83  -3.40  -955.989136    3             
iter:   7  19:42:55  -4.64  -3.56  -955.987705    1             
iter:   8  19:43:50  -5.18  -3.74  -955.987277    2             
iter:   9  19:44:44  -5.39  -3.87  -955.986978    2             
iter:  10  19:45:39  -4.98  -3.99  -955.986763    2             
iter:  11  19:46:33  -5.95  -4.26  -955.986763    2             
iter:  12  19:47:28  -6.66  -4.27  -955.986754    2             
iter:  13  19:48:22  -6.03  -4.27  -955.986755    2             
iter:  14  19:49:17  -6.43  -4.59  -955.986758    1             
iter:  15  19:50:11  -6.47  -4.65  -955.986739    2             
iter:  16  19:51:06  -7.16  -4.72  -955.986744    1             
iter:  17  19:52:00  -7.56  -4.86  -955.986741    1             

Converged after 17 iterations.

Dipole moment: (-13.644563, -9.888813, -1.593978) |e|*Ang

Energy contributions relative to reference atoms: (reference = -1044851.132452)

Kinetic:       +671.295368
Potential:     -863.152163
External:        +0.000000
XC:            -771.811269
Entropy (-ST):   -0.000499
Local:           +7.681572
--------------------------
Free energy:   -955.986991
Extrapolated:  -955.986741

Fermi level: -0.78105

Showing only first 2 kpts
 Kpt  Band  Eigenvalues  Occupancy
  0   458     -1.85384    0.22222
  0   459     -1.84367    0.22222
  0   460      0.07037    0.00004
  0   461      0.24257    0.00001

  1   458     -1.86782    0.44444
  1   459     -1.83417    0.44443
  1   460      0.25378    0.00001
  1   461      0.37956    0.00000



Forces in eV/Ang:
  0 O    -1.85238   -0.00114    1.54977
  1 O    -1.98587   -0.00304    1.58263
  2 Ti    3.67276    0.01327    1.77205
  3 Ti    3.89744    0.02050    1.98465
  4 Ti   -1.95335   -0.01710   -1.58300
  5 Ti   -1.63473    0.02524   -1.99204
  6 O     0.93592   -0.03450   -0.21610
  7 O     0.83555   -0.01999   -0.21158
  8 O    -0.67045   -0.00709   -0.77955
  9 O    -0.76586   -0.00015   -0.64300
 10 O    -0.30920   -0.04696   -0.82977
 11 O    -0.19546    0.03394   -0.89644
 12 O    -0.06405    0.00014    0.03826
 13 O    -0.08196    0.00211    0.01212
 14 Ti    0.03254   -0.07688   -0.02190
 15 Ti   -0.04682   -0.01168   -0.01981
 16 Ti    0.03243    0.00883    0.00106
 17 Ti   -0.06177    0.13125    0.09506
 18 O     0.08764    0.02480    0.01873
 19 O     0.17399   -0.07797   -0.14198
 20 O    -0.00969   -0.01981    0.14399
 21 O     0.05312   -0.01254   -0.07967
 22 O     0.07099    0.00205    0.09117
 23 O    -0.02523    0.10769    0.15135
 24 O     0.11595    0.03651   -0.02138
 25 O    -0.00117   -0.06935   -0.00605
 26 Ti    0.08614   -0.13979    0.12816
 27 Ti   -0.11444   -0.01279   -0.05533
 28 Ti    0.02924    0.05196   -0.09132
 29 Ti    0.00065    0.00211    0.09832
 30 O     0.08088   -0.02063   -0.05891
 31 O    -0.01581   -0.02291    0.16088
 32 O    -0.04024    0.03049   -0.08438
 33 O    -0.01346    0.04416   -0.13198
 34 O    -0.22935    0.05866    0.26318
 35 O    -0.06847    0.08430    0.04735
 36 O    -1.83242    0.00470    1.56930
 37 O    -2.07402    0.00446    1.55871
 38 Ti    3.61263   -0.01532    1.63617
 39 Ti    3.87464   -0.03443    1.98359
 40 Ti   -1.96962    0.00014   -1.59334
 41 Ti   -1.45139   -0.03326   -2.09809
 42 O     0.95364    0.02862   -0.18792
 43 O     0.83286    0.06094   -0.21238
 44 O    -0.64813    0.01367   -0.72871
 45 O    -0.76803    0.00868   -0.65213
 46 O    -0.32217    0.01351   -0.86009
 47 O    -0.19847   -0.00859   -0.87358
 48 O    -0.08960   -0.00174    0.03418
 49 O    -0.14649    0.01200    0.01276
 50 Ti    0.04330   -0.11314   -0.03679
 51 Ti   -0.01078   -0.01695   -0.03107
 52 Ti    0.06324   -0.01215    0.01144
 53 Ti   -0.03456    0.09782    0.10201
 54 O     0.09305    0.01475    0.00024
 55 O     0.16043   -0.04593   -0.07054
 56 O    -0.03842    0.03470    0.12490
 57 O     0.06313    0.00685   -0.04157
 58 O     0.08082   -0.01344   -0.03966
 59 O    -0.00745    0.08830    0.15142
 60 O     0.14034   -0.01805   -0.12117
 61 O    -0.14271   -0.01108   -0.01415
 62 Ti    0.09424   -0.15012    0.11751
 63 Ti   -0.12410    0.09898   -0.03855
 64 Ti    0.02201   -0.06692   -0.06371
 65 Ti    0.04107   -0.01995    0.05888
 66 O    -0.08644    0.02992    0.29529
 67 O     0.18570    0.28895    0.45789
 68 O     0.00123   -0.05768   -0.14716
 69 O     0.04463   -0.01159   -0.01317
 70 O    -0.22594   -0.02892    0.01144
 71 O    -0.05689    0.06438    0.04980
 72 O    -1.86529   -0.00197    1.57194
 73 O    -1.97605    0.00261    1.59682
 74 Ti    3.63907    0.02627    1.73040
 75 Ti    3.82273    0.00438    1.90564
 76 Ti   -1.83342    0.02756   -1.53048
 77 Ti   -1.54127   -0.03592   -1.87567
 78 O     0.94610    0.01786   -0.20992
 79 O     0.85447   -0.02171   -0.20355
 80 O    -0.68608   -0.01718   -0.63964
 81 O    -0.71453    0.00261   -0.63535
 82 O    -0.32039    0.03460   -0.88899
 83 O    -0.22310   -0.03328   -0.85674
 84 O    -0.03235   -0.00319    0.04288
 85 O    -0.05376   -0.01172    0.01828
 86 Ti   -0.06680   -0.11066    0.00500
 87 Ti   -0.01534    0.02371    0.07283
 88 Ti    0.05723    0.03202   -0.01183
 89 Ti   -0.09966    0.10993   -0.17653
 90 O     0.15364   -0.01488    0.01019
 91 O     0.18721   -0.11306   -0.04425
 92 O    -0.05759    0.00197    0.14123
 93 O     0.17352   -0.00154   -0.00662
 94 O     0.04453   -0.01010    0.10688
 95 O    -0.01526    0.06404    0.14183
 96 O    -0.01804   -0.00957   -0.13692
 97 O     0.25306   -0.08101   -0.02936
 98 Ti   -0.18265    0.00172    0.29791
 99 Ti    0.06166   -0.18029    0.04968
100 Ti    0.13353    0.06500    0.17086
101 Ti   -0.61812    0.37819   -0.89069
102 O     0.14483    0.01041   -0.03028
103 O     0.02029   -0.40663    0.15493
104 O     0.05005    0.09132   -0.21684
105 O     0.33350   -0.20424    0.08743
106 O    -0.21941    0.01760    0.04255
107 O    -0.06990    0.02833    0.01398
108 V    -0.28211    0.03930   -0.29983
109 V    -0.09678    0.01173   -0.12584
110 O     0.05592   -0.00021    0.09949
111 O    -0.02903   -0.00155    0.01670
112 O     0.13603    0.07538    0.12024
113 O    -0.10202    0.15745    0.57426
114 O     0.14900   -0.06697    0.11717

System changes: positions 

Initializing position-dependent things.

Density initialized from wave functions
                                                
                                                
                                                
                                                
                                                
                                                
                           O                    
                     O   V O                    
             O                                  
                  TiO    O      O               
                 O V  O              Ti         
           O   Ti O          Ti   O             
               O      OiO    O                  
         O     OO   OTi    Tii   OTi            
             Tii   TiO    OOO   O               
             OO   OO    O Ti    Tii             
          O Ti     Ti   TiO  O O     O          
                OTiO   O      TiO               
           O    TiO   OTiO  O O    O Ti         
         Ti     O    O Oi    Ti     O           
              OTi          OTi    O             
             O O    O O         O Ti            
                    Ti     Oi     O             
             Oi     O    O      Ti              
           O     OTi    Ti     O                
          Ti          O      O                  
               O                                
                                                
                                                
                                                
                                                

Positions:
   0 O      8.476572    1.911173    6.000000    ( 0.0000,  0.0000,  0.0000)
   1 O      3.305699    0.000000    6.000000    ( 0.0000,  0.0000,  0.0000)
   2 Ti     1.412752    0.000000    6.752957    ( 0.0000,  0.0000,  0.0000)
   3 Ti     6.583625    1.911173    6.752957    ( 0.0000,  0.0000,  0.0000)
   4 Ti     9.522250    1.911173    7.640878    ( 0.0000,  0.0000,  0.0000)
   5 Ti     4.351376    0.000000    7.640878    ( 0.0000,  0.0000,  0.0000)
   6 O      9.861551    0.000000    7.505914    ( 0.0000,  0.0000,  0.0000)
   7 O      4.690678    1.911173    7.505914    ( 0.0000,  0.0000,  0.0000)
   8 O      7.629303    1.911173    8.393834    ( 0.0000,  0.0000,  0.0000)
   9 O      2.458430    0.000000    8.393834    ( 0.0000,  0.0000,  0.0000)
  10 O      6.244323    0.000000    6.887921    ( 0.0000,  0.0000,  0.0000)
  11 O      1.073450    1.911173    6.887921    ( 0.0000,  0.0000,  0.0000)
  12 O      9.810204    1.904284    9.612799    ( 0.0000,  0.0000,  0.0000)
  13 O      4.618710   11.470727    9.581319    ( 0.0000,  0.0000,  0.0000)
  14 Ti     2.716926   11.525076   10.338657    ( 0.0000,  0.0000,  0.0000)
  15 Ti     8.015476    1.908879   10.370069    ( 0.0000,  0.0000,  0.0000)
  16 Ti     0.506015    1.914051   11.287641    ( 0.0000,  0.0000,  0.0000)
  17 Ti     5.717296   11.400813   11.083346    ( 0.0000,  0.0000,  0.0000)
  18 O      0.905456   11.466763   11.106213    ( 0.0000,  0.0000,  0.0000)
  19 O      6.090564    1.909733   11.047976    ( 0.0000,  0.0000,  0.0000)
  20 O      9.011965    1.963130   11.982260    ( 0.0000,  0.0000,  0.0000)
  21 O      3.841269   11.455070   11.925395    ( 0.0000,  0.0000,  0.0000)
  22 O      7.581841   11.456193   10.456265    ( 0.0000,  0.0000,  0.0000)
  23 O      2.363050    1.916485   10.462313    ( 0.0000,  0.0000,  0.0000)
  24 O      0.873147    1.911757   13.185189    ( 0.0000,  0.0000,  0.0000)
  25 O      6.088668    0.115137   13.047328    ( 0.0000,  0.0000,  0.0000)
  26 Ti     4.102150    0.107472   13.806405    ( 0.0000,  0.0000,  0.0000)
  27 Ti     9.509373    1.946174   14.074524    ( 0.0000,  0.0000,  0.0000)
  28 Ti     1.963049    1.920430   14.988236    ( 0.0000,  0.0000,  0.0000)
  29 Ti     7.084627    0.023796   14.516999    ( 0.0000,  0.0000,  0.0000)
  30 O      2.386204    0.038817   14.779655    ( 0.0000,  0.0000,  0.0000)
  31 O      7.485495    1.905096   14.840902    ( 0.0000,  0.0000,  0.0000)
  32 O      0.211847    1.909911   15.580567    ( 0.0000,  0.0000,  0.0000)
  33 O      5.374919   11.210599   15.446406    ( 0.0000,  0.0000,  0.0000)
  34 O      9.020287    0.037309   13.988373    ( 0.0000,  0.0000,  0.0000)
  35 O      3.895352    1.909709   13.942249    ( 0.0000,  0.0000,  0.0000)
  36 O      8.476572    5.733518    6.000000    ( 0.0000,  0.0000,  0.0000)
  37 O      3.305699    3.822345    6.000000    ( 0.0000,  0.0000,  0.0000)
  38 Ti     1.412752    3.822345    6.752957    ( 0.0000,  0.0000,  0.0000)
  39 Ti     6.583625    5.733518    6.752957    ( 0.0000,  0.0000,  0.0000)
  40 Ti     9.522250    5.733518    7.640878    ( 0.0000,  0.0000,  0.0000)
  41 Ti     4.351376    3.822345    7.640878    ( 0.0000,  0.0000,  0.0000)
  42 O      9.861551    3.822345    7.505914    ( 0.0000,  0.0000,  0.0000)
  43 O      4.690678    5.733518    7.505914    ( 0.0000,  0.0000,  0.0000)
  44 O      7.629303    5.733518    8.393834    ( 0.0000,  0.0000,  0.0000)
  45 O      2.458430    3.822345    8.393834    ( 0.0000,  0.0000,  0.0000)
  46 O      6.244323    3.822345    6.887921    ( 0.0000,  0.0000,  0.0000)
  47 O      1.073450    5.733518    6.887921    ( 0.0000,  0.0000,  0.0000)
  48 O      9.809242    5.746959    9.618134    ( 0.0000,  0.0000,  0.0000)
  49 O      4.636246    3.831070    9.560105    ( 0.0000,  0.0000,  0.0000)
  50 Ti     2.701789    3.894756   10.315092    ( 0.0000,  0.0000,  0.0000)
  51 Ti     8.003899    5.735474   10.372866    ( 0.0000,  0.0000,  0.0000)
  52 Ti     0.494151    5.753879   11.282178    ( 0.0000,  0.0000,  0.0000)
  53 Ti     5.732582    3.754091   11.056099    ( 0.0000,  0.0000,  0.0000)
  54 O      0.912076    3.837302   11.102412    ( 0.0000,  0.0000,  0.0000)
  55 O      6.095061    5.733243   11.073137    ( 0.0000,  0.0000,  0.0000)
  56 O      9.010526    5.727594   11.991180    ( 0.0000,  0.0000,  0.0000)
  57 O      3.870851    3.832978   11.869827    ( 0.0000,  0.0000,  0.0000)
  58 O      7.580929    3.824205   10.434803    ( 0.0000,  0.0000,  0.0000)
  59 O      2.367237    5.747315   10.460848    ( 0.0000,  0.0000,  0.0000)
  60 O      0.856893    5.768813   13.205648    ( 0.0000,  0.0000,  0.0000)
  61 O      6.113523    3.808000   13.073903    ( 0.0000,  0.0000,  0.0000)
  62 Ti     4.060981    3.940103   13.722290    ( 0.0000,  0.0000,  0.0000)
  63 Ti     9.517447    5.713972   14.082427    ( 0.0000,  0.0000,  0.0000)
  64 Ti     1.957239    5.759465   15.004585    ( 0.0000,  0.0000,  0.0000)
  65 Ti     6.987300    3.772156   14.598360    ( 0.0000,  0.0000,  0.0000)
  66 O      2.315924    3.841144   14.397470    ( 0.0000,  0.0000,  0.0000)
  67 O      7.394448    5.720034   14.822868    ( 0.0000,  0.0000,  0.0000)
  68 O      0.207030    5.753751   15.599363    ( 0.0000,  0.0000,  0.0000)
  69 O      5.213885    3.828238   15.508927    ( 0.0000,  0.0000,  0.0000)
  70 O      8.952936    3.837991   14.140731    ( 0.0000,  0.0000,  0.0000)
  71 O      3.890610    5.785031   13.944321    ( 0.0000,  0.0000,  0.0000)
  72 O      8.476572    9.555862    6.000000    ( 0.0000,  0.0000,  0.0000)
  73 O      3.305699    7.644690    6.000000    ( 0.0000,  0.0000,  0.0000)
  74 Ti     1.412752    7.644690    6.752957    ( 0.0000,  0.0000,  0.0000)
  75 Ti     6.583625    9.555862    6.752957    ( 0.0000,  0.0000,  0.0000)
  76 Ti     9.522250    9.555862    7.640878    ( 0.0000,  0.0000,  0.0000)
  77 Ti     4.351376    7.644690    7.640878    ( 0.0000,  0.0000,  0.0000)
  78 O      9.861551    7.644690    7.505914    ( 0.0000,  0.0000,  0.0000)
  79 O      4.690678    9.555862    7.505914    ( 0.0000,  0.0000,  0.0000)
  80 O      7.629303    9.555862    8.393834    ( 0.0000,  0.0000,  0.0000)
  81 O      2.458430    7.644690    8.393834    ( 0.0000,  0.0000,  0.0000)
  82 O      6.244323    7.644690    6.887921    ( 0.0000,  0.0000,  0.0000)
  83 O      1.073450    9.555862    6.887921    ( 0.0000,  0.0000,  0.0000)
  84 O      9.805551    9.559681    9.623609    ( 0.0000,  0.0000,  0.0000)
  85 O      4.630693    7.651926    9.595462    ( 0.0000,  0.0000,  0.0000)
  86 Ti     2.746898    7.717829   10.323858    ( 0.0000,  0.0000,  0.0000)
  87 Ti     8.029218    9.552583   10.354547    ( 0.0000,  0.0000,  0.0000)
  88 Ti     0.515055    9.548544   11.336461    ( 0.0000,  0.0000,  0.0000)
  89 Ti     5.728702    7.588180   11.127731    ( 0.0000,  0.0000,  0.0000)
  90 O      0.910893    7.654367   11.109267    ( 0.0000,  0.0000,  0.0000)
  91 O      6.090491    9.551432   11.089822    ( 0.0000,  0.0000,  0.0000)
  92 O      9.044171    9.526729   12.012339    ( 0.0000,  0.0000,  0.0000)
  93 O      3.857459    7.661938   11.933461    ( 0.0000,  0.0000,  0.0000)
  94 O      7.573082    7.648259   10.456589    ( 0.0000,  0.0000,  0.0000)
  95 O      2.371927    9.557391   10.458268    ( 0.0000,  0.0000,  0.0000)
  96 O      0.930968    9.573009   13.229328    ( 0.0000,  0.0000,  0.0000)
  97 O      6.106682    7.605622   13.133636    ( 0.0000,  0.0000,  0.0000)
  98 Ti     4.143427    7.723640   13.805529    ( 0.0000,  0.0000,  0.0000)
  99 Ti     9.478020    9.611541   14.091519    ( 0.0000,  0.0000,  0.0000)
 100 Ti     1.951419    9.551193   15.009987    ( 0.0000,  0.0000,  0.0000)
 101 Ti     7.101229    7.570061   14.610420    ( 0.0000,  0.0000,  0.0000)
 102 O      2.383876    7.641025   14.792235    ( 0.0000,  0.0000,  0.0000)
 103 O      7.578731    9.614025   14.781909    ( 0.0000,  0.0000,  0.0000)
 104 O      0.217403    9.570855   15.603136    ( 0.0000,  0.0000,  0.0000)
 105 O      5.364928    7.975775   15.467125    ( 0.0000,  0.0000,  0.0000)
 106 O      8.974771    7.630912   14.141313    ( 0.0000,  0.0000,  0.0000)
 107 O      3.815758    9.561922   13.931135    ( 0.0000,  0.0000,  0.0000)
 108 V      4.900838    9.593442   16.283814    ( 0.0000,  0.0000,  0.0000)
 109 V      3.862057    3.825729   16.806395    ( 0.0000,  0.0000,  0.0000)
 110 O      4.508687    3.821808   18.253280    ( 0.0000,  0.0000,  0.0000)
 111 O      3.190126    9.582886   16.562753    ( 0.0000,  0.0000,  0.0000)
 112 O      2.866232    2.377086   16.569176    ( 0.0000,  0.0000,  0.0000)
 113 O      5.745268    9.540280   17.620039    ( 0.0000,  0.0000,  0.0000)
 114 O      2.868472    5.281539   16.572739    ( 0.0000,  0.0000,  0.0000)

Unit cell:
           periodic     x           y           z      points  spacing
  1. axis:    yes   10.341746    0.000000    0.000000    54     0.1915
  2. axis:    yes   -0.000000   11.467000    0.000000    60     0.1911
  3. axis:    no     0.000000    0.000000   23.497201   125     0.1880

  Lengths:  10.341746  11.467000  23.497201
  Angles:   90.000000  90.000000  90.000000

Effective grid spacing dv^(1/3) = 0.1902

                     log10-error:    total        iterations:
           time      wfs    density  energy       fermi  poisson
iter:   1  19:53:15  -2.64   +inf  -956.092733    2             
iter:   2  19:54:09  -3.62  -3.11  -956.090772    2             
iter:   3  19:55:03  -3.35  -3.14  -956.078291    2             
iter:   4  19:55:58  -4.55  -3.36  -956.076957    2             
iter:   5  19:56:52  -4.18  -3.38  -956.078023    2             
iter:   6  19:57:46  -4.18  -3.40  -956.074890    2             
iter:   7  19:58:41  -5.04  -3.71  -956.074231    2             
iter:   8  19:59:35  -5.66  -3.98  -956.074219    1             
iter:   9  20:00:29  -5.42  -4.05  -956.074198    1             
iter:  10  20:01:24  -5.98  -4.12  -956.074117    2             
iter:  11  20:02:18  -6.56  -4.26  -956.074091    1             
iter:  12  20:03:13  -6.25  -4.30  -956.074094    1             
iter:  13  20:04:07  -5.96  -4.44  -956.074114    2             
iter:  14  20:05:01  -6.36  -4.59  -956.074086    2             
iter:  15  20:05:56  -7.17  -4.72  -956.074085    1             
iter:  16  20:06:50  -7.08  -4.81  -956.074084    1             
iter:  17  20:07:44  -8.09  -5.00  -956.074083    1             

Converged after 17 iterations.

Dipole moment: (-13.747539, -9.742029, -1.606315) |e|*Ang

Energy contributions relative to reference atoms: (reference = -1044851.132452)

Kinetic:       +671.586712
Potential:     -863.442375
External:        +0.000000
XC:            -771.903662
Entropy (-ST):   -0.000500
Local:           +7.685493
--------------------------
Free energy:   -956.074333
Extrapolated:  -956.074083

Fermi level: -0.78665

Showing only first 2 kpts
 Kpt  Band  Eigenvalues  Occupancy
  0   458     -1.85744    0.22222
  0   459     -1.84772    0.22222
  0   460      0.06290    0.00005
  0   461      0.24177    0.00001

  1   458     -1.87514    0.44444
  1   459     -1.83753    0.44443
  1   460      0.24643    0.00001
  1   461      0.37936    0.00000



Forces in eV/Ang:
  0 O    -1.85307   -0.00101    1.55065
  1 O    -1.98395   -0.00325    1.58438
  2 Ti    3.66451    0.01332    1.76932
  3 Ti    3.90069    0.01889    1.98338
  4 Ti   -1.95382   -0.01700   -1.56234
  5 Ti   -1.63145    0.02804   -2.00352
  6 O     0.93983   -0.03222   -0.21854
  7 O     0.83386   -0.02087   -0.20876
  8 O    -0.67695   -0.01098   -0.79199
  9 O    -0.77204    0.00396   -0.64437
 10 O    -0.31319   -0.04380   -0.82879
 11 O    -0.19321    0.03343   -0.89769
 12 O    -0.03808   -0.00114    0.01529
 13 O    -0.02920   -0.00192    0.03087
 14 Ti   -0.01761   -0.06584   -0.02474
 15 Ti    0.01918   -0.00496    0.02312
 16 Ti   -0.00129    0.02663    0.03529
 17 Ti   -0.01085    0.08612    0.00711
 18 O     0.07549    0.03861    0.00766
 19 O     0.09688   -0.04041   -0.10887
 20 O    -0.00328   -0.02362    0.09411
 21 O     0.09336   -0.00720    0.05087
 22 O     0.03238   -0.00991    0.09572
 23 O     0.01214    0.05643    0.12570
 24 O     0.09343    0.02748    0.00743
 25 O     0.01039   -0.06308    0.05532
 26 Ti    0.02586   -0.01929   -0.00395
 27 Ti   -0.06792    0.02799   -0.08181
 28 Ti   -0.04998    0.11559   -0.00455
 29 Ti    0.14365   -0.09088    0.02489
 30 O     0.08867   -0.04020   -0.03747
 31 O    -0.05665   -0.08791    0.14811
 32 O     0.03779    0.02418   -0.08391
 33 O    -0.08713   -0.03321   -0.00992
 34 O    -0.23748    0.00747    0.27195
 35 O    -0.05788   -0.02094    0.02847
 36 O    -1.83490    0.00465    1.56853
 37 O    -2.07327    0.00480    1.55928
 38 Ti    3.60716   -0.01656    1.63449
 39 Ti    3.88336   -0.03436    1.98219
 40 Ti   -1.96962    0.00029   -1.56559
 41 Ti   -1.44925   -0.03478   -2.10415
 42 O     0.95645    0.02757   -0.19054
 43 O     0.82949    0.06825   -0.20761
 44 O    -0.66262    0.01662   -0.75641
 45 O    -0.78245    0.01237   -0.66422
 46 O    -0.32435    0.01346   -0.85865
 47 O    -0.19503   -0.00581   -0.87701
 48 O    -0.05469   -0.00060   -0.00829
 49 O    -0.07789    0.00529    0.04646
 50 Ti    0.00223   -0.08630   -0.01993
 51 Ti    0.05550   -0.00581    0.06211
 52 Ti    0.00298   -0.01652    0.07828
 53 Ti    0.01505    0.11229    0.04740
 54 O     0.06972    0.01214   -0.00822
 55 O     0.08133   -0.03221   -0.04310
 56 O    -0.01746    0.02223    0.03544
 57 O     0.07174    0.00914    0.05636
 58 O     0.02571   -0.03564   -0.02858
 59 O     0.03075    0.04172    0.12148
 60 O     0.15906   -0.01090   -0.09021
 61 O    -0.15358   -0.02323   -0.03625
 62 Ti    0.04868   -0.09581    0.10450
 63 Ti   -0.32423    0.22711   -0.02531
 64 Ti   -0.05480   -0.13772    0.00091
 65 Ti    0.09399    0.30872    0.11949
 66 O     0.01639    0.02876    0.23409
 67 O     0.14114    0.02330    0.31636
 68 O     0.12735   -0.05350   -0.09122
 69 O     0.02004   -0.02499   -0.05310
 70 O    -0.19013   -0.07498    0.00152
 71 O    -0.04310    0.01202    0.03143
 72 O    -1.86446   -0.00210    1.57026
 73 O    -1.96860    0.00242    1.60392
 74 Ti    3.62351    0.02611    1.72714
 75 Ti    3.84042    0.00642    1.91398
 76 Ti   -1.84635    0.02723   -1.50063
 77 Ti   -1.54305   -0.03538   -1.91333
 78 O     0.95220    0.01659   -0.21369
 79 O     0.84814   -0.02741   -0.19659
 80 O    -0.69226   -0.01670   -0.65706
 81 O    -0.71044    0.00744   -0.62910
 82 O    -0.32702    0.03141   -0.88878
 83 O    -0.21723   -0.03472   -0.86468
 84 O    -0.01480   -0.00356    0.01455
 85 O    -0.01490   -0.01506   -0.01669
 86 Ti   -0.09738   -0.10761    0.05020
 87 Ti    0.03918   -0.00126    0.12946
 88 Ti   -0.01394    0.02327    0.01810
 89 Ti   -0.06512    0.09043   -0.20210
 90 O     0.12945    0.01930   -0.00251
 91 O     0.11234   -0.03645   -0.01738
 92 O    -0.03678    0.01941    0.05263
 93 O     0.20022    0.01273    0.10292
 94 O     0.03270   -0.01527    0.09104
 95 O     0.01709    0.04555    0.11978
 96 O     0.03853   -0.00965   -0.06040
 97 O    -0.20480   -0.05378   -0.70603
 98 Ti   -0.19239   -0.11316    0.18372
 99 Ti   -0.10155   -0.31788   -0.08604
100 Ti    0.02281    0.07472    0.02912
101 Ti    0.11745    0.14590   -0.10540
102 O     0.13704    0.06782   -0.01154
103 O    -0.05677   -0.09661    0.11174
104 O     0.14604    0.08717   -0.03928
105 O    -0.02072    0.03917    0.19097
106 O     0.01118    0.04948   -0.05903
107 O    -0.02270    0.05152    0.02902
108 V    -0.16526   -0.10325   -0.35606
109 V     0.08106    0.02637   -0.00939
110 O     0.03890   -0.00229    0.06559
111 O     0.01939   -0.00138    0.05154
112 O     0.00241   -0.06712    0.00924
113 O    -0.13189    0.16774    0.51921
114 O     0.02194    0.06577    0.02213

System changes: positions 

Initializing position-dependent things.

Density initialized from wave functions
                                                
                                                
                                                
                                                
                                                
                                                
                           O                    
                     O   V O                    
             O                                  
                  TiO    O      O               
                 O V  O              Ti         
           O   Ti O          Ti   O             
               O      OiO    O                  
         O     OO   OTi    Tii   OTi            
             Tii   TiO    OOO  O                
             OO   OO    O Ti    Tii             
          O Ti     Ti   TiO  O O     O          
            O   OTiO   O      TiO               
                TiO   OTiO  O O    O Ti         
         Ti     O    O Oi    Ti     O           
              OTi          OTi    O             
             O O    O O         O Ti            
                    Ti     Oi     O             
             Oi     O    O      Ti              
           O     OTi    Ti     O                
          Ti          O      O                  
               O                                
                                                
                                                
                                                
                                                

Positions:
   0 O      8.476572    1.911173    6.000000    ( 0.0000,  0.0000,  0.0000)
   1 O      3.305699    0.000000    6.000000    ( 0.0000,  0.0000,  0.0000)
   2 Ti     1.412752    0.000000    6.752957    ( 0.0000,  0.0000,  0.0000)
   3 Ti     6.583625    1.911173    6.752957    ( 0.0000,  0.0000,  0.0000)
   4 Ti     9.522250    1.911173    7.640878    ( 0.0000,  0.0000,  0.0000)
   5 Ti     4.351376    0.000000    7.640878    ( 0.0000,  0.0000,  0.0000)
   6 O      9.861551    0.000000    7.505914    ( 0.0000,  0.0000,  0.0000)
   7 O      4.690678    1.911173    7.505914    ( 0.0000,  0.0000,  0.0000)
   8 O      7.629303    1.911173    8.393834    ( 0.0000,  0.0000,  0.0000)
   9 O      2.458430    0.000000    8.393834    ( 0.0000,  0.0000,  0.0000)
  10 O      6.244323    0.000000    6.887921    ( 0.0000,  0.0000,  0.0000)
  11 O      1.073450    1.911173    6.887921    ( 0.0000,  0.0000,  0.0000)
  12 O      9.808271    1.904272    9.613979    ( 0.0000,  0.0000,  0.0000)
  13 O      4.616421   11.470739    9.582058    ( 0.0000,  0.0000,  0.0000)
  14 Ti     2.717437   11.522406   10.337741    ( 0.0000,  0.0000,  0.0000)
  15 Ti     8.014627    1.908544   10.369848    ( 0.0000,  0.0000,  0.0000)
  16 Ti     0.506739    1.914653   11.288121    ( 0.0000,  0.0000,  0.0000)
  17 Ti     5.715851   11.405032   11.085568    ( 0.0000,  0.0000,  0.0000)
  18 O      0.908470   11.467840   11.106755    ( 0.0000,  0.0000,  0.0000)
  19 O      6.095859    1.907400   11.043178    ( 0.0000,  0.0000,  0.0000)
  20 O      9.011812    1.962346   11.986912    ( 0.0000,  0.0000,  0.0000)
  21 O      3.843799   11.454654   11.924283    ( 0.0000,  0.0000,  0.0000)
  22 O      7.583944   11.456045   10.459728    ( 0.0000,  0.0000,  0.0000)
  23 O      2.362649    1.919667   10.467557    ( 0.0000,  0.0000,  0.0000)
  24 O      0.877061    1.913006   13.184767    ( 0.0000,  0.0000,  0.0000)
  25 O      6.088768    0.112600   13.047937    ( 0.0000,  0.0000,  0.0000)
  26 Ti     4.104607    0.104550   13.809165    ( 0.0000,  0.0000,  0.0000)
  27 Ti     9.505706    1.946126   14.072201    ( 0.0000,  0.0000,  0.0000)
  28 Ti     1.962976    1.923177   14.986209    ( 0.0000,  0.0000,  0.0000)
  29 Ti     7.086668    0.022866   14.519740    ( 0.0000,  0.0000,  0.0000)
  30 O      2.389277    0.037648   14.777835    ( 0.0000,  0.0000,  0.0000)
  31 O      7.484310    1.903598   14.846609    ( 0.0000,  0.0000,  0.0000)
  32 O      0.211472    1.910995   15.577374    ( 0.0000,  0.0000,  0.0000)
  33 O      5.373083   11.211417   15.442611    ( 0.0000,  0.0000,  0.0000)
  34 O      9.011848    0.038469   13.998212    ( 0.0000,  0.0000,  0.0000)
  35 O      3.892920    1.911304   13.943714    ( 0.0000,  0.0000,  0.0000)
  36 O      8.476572    5.733518    6.000000    ( 0.0000,  0.0000,  0.0000)
  37 O      3.305699    3.822345    6.000000    ( 0.0000,  0.0000,  0.0000)
  38 Ti     1.412752    3.822345    6.752957    ( 0.0000,  0.0000,  0.0000)
  39 Ti     6.583625    5.733518    6.752957    ( 0.0000,  0.0000,  0.0000)
  40 Ti     9.522250    5.733518    7.640878    ( 0.0000,  0.0000,  0.0000)
  41 Ti     4.351376    3.822345    7.640878    ( 0.0000,  0.0000,  0.0000)
  42 O      9.861551    3.822345    7.505914    ( 0.0000,  0.0000,  0.0000)
  43 O      4.690678    5.733518    7.505914    ( 0.0000,  0.0000,  0.0000)
  44 O      7.629303    5.733518    8.393834    ( 0.0000,  0.0000,  0.0000)
  45 O      2.458430    3.822345    8.393834    ( 0.0000,  0.0000,  0.0000)
  46 O      6.244323    3.822345    6.887921    ( 0.0000,  0.0000,  0.0000)
  47 O      1.073450    5.733518    6.887921    ( 0.0000,  0.0000,  0.0000)
  48 O      9.806503    5.746917    9.618935    ( 0.0000,  0.0000,  0.0000)
  49 O      4.631811    3.831412    9.561071    ( 0.0000,  0.0000,  0.0000)
  50 Ti     2.702909    3.890948   10.313959    ( 0.0000,  0.0000,  0.0000)
  51 Ti     8.004231    5.735008   10.372789    ( 0.0000,  0.0000,  0.0000)
  52 Ti     0.495793    5.753299   11.283468    ( 0.0000,  0.0000,  0.0000)
  53 Ti     5.732030    3.757948   11.059018    ( 0.0000,  0.0000,  0.0000)
  54 O      0.915084    3.837863   11.102321    ( 0.0000,  0.0000,  0.0000)
  55 O      6.099884    5.731676   11.070874    ( 0.0000,  0.0000,  0.0000)
  56 O      9.009517    5.728707   11.994834    ( 0.0000,  0.0000,  0.0000)
  57 O      3.873251    3.833282   11.869798    ( 0.0000,  0.0000,  0.0000)
  58 O      7.583166    3.823424   10.433494    ( 0.0000,  0.0000,  0.0000)
  59 O      2.367461    5.749911   10.466050    ( 0.0000,  0.0000,  0.0000)
  60 O      0.861956    5.768271   13.201775    ( 0.0000,  0.0000,  0.0000)
  61 O      6.108360    3.807492   13.073611    ( 0.0000,  0.0000,  0.0000)
  62 Ti     4.063991    3.935260   13.726114    ( 0.0000,  0.0000,  0.0000)
  63 Ti     9.510495    5.719097   14.081195    ( 0.0000,  0.0000,  0.0000)
  64 Ti     1.957028    5.755934   15.003173    ( 0.0000,  0.0000,  0.0000)
  65 Ti     6.989297    3.775575   14.601037    ( 0.0000,  0.0000,  0.0000)
  66 O      2.314184    3.842257   14.407593    ( 0.0000,  0.0000,  0.0000)
  67 O      7.400841    5.727208   14.837621    ( 0.0000,  0.0000,  0.0000)
  68 O      0.208565    5.751699   15.594502    ( 0.0000,  0.0000,  0.0000)
  69 O      5.215311    3.827694   15.507566    ( 0.0000,  0.0000,  0.0000)
  70 O      8.945125    3.836639   14.141020    ( 0.0000,  0.0000,  0.0000)
  71 O      3.888705    5.786718   13.945933    ( 0.0000,  0.0000,  0.0000)
  72 O      8.476572    9.555862    6.000000    ( 0.0000,  0.0000,  0.0000)
  73 O      3.305699    7.644690    6.000000    ( 0.0000,  0.0000,  0.0000)
  74 Ti     1.412752    7.644690    6.752957    ( 0.0000,  0.0000,  0.0000)
  75 Ti     6.583625    9.555862    6.752957    ( 0.0000,  0.0000,  0.0000)
  76 Ti     9.522250    9.555862    7.640878    ( 0.0000,  0.0000,  0.0000)
  77 Ti     4.351376    7.644690    7.640878    ( 0.0000,  0.0000,  0.0000)
  78 O      9.861551    7.644690    7.505914    ( 0.0000,  0.0000,  0.0000)
  79 O      4.690678    9.555862    7.505914    ( 0.0000,  0.0000,  0.0000)
  80 O      7.629303    9.555862    8.393834    ( 0.0000,  0.0000,  0.0000)
  81 O      2.458430    7.644690    8.393834    ( 0.0000,  0.0000,  0.0000)
  82 O      6.244323    7.644690    6.887921    ( 0.0000,  0.0000,  0.0000)
  83 O      1.073450    9.555862    6.887921    ( 0.0000,  0.0000,  0.0000)
  84 O      9.804655    9.559552    9.624927    ( 0.0000,  0.0000,  0.0000)
  85 O      4.629163    7.651447    9.595575    ( 0.0000,  0.0000,  0.0000)
  86 Ti     2.744110    7.713758   10.324627    ( 0.0000,  0.0000,  0.0000)
  87 Ti     8.029284    9.553084   10.357829    ( 0.0000,  0.0000,  0.0000)
  88 Ti     0.516261    9.549672   11.336282    ( 0.0000,  0.0000,  0.0000)
  89 Ti     5.725570    7.591934   11.120648    ( 0.0000,  0.0000,  0.0000)
  90 O      0.916136    7.654331   11.109483    ( 0.0000,  0.0000,  0.0000)
  91 O      6.096336    9.548450   11.088523    ( 0.0000,  0.0000,  0.0000)
  92 O      9.042414    9.527038   12.016441    ( 0.0000,  0.0000,  0.0000)
  93 O      3.864099    7.662140   11.934885    ( 0.0000,  0.0000,  0.0000)
  94 O      7.574668    7.647809   10.460309    ( 0.0000,  0.0000,  0.0000)
  95 O      2.371794    9.559472   10.463236    ( 0.0000,  0.0000,  0.0000)
  96 O      0.931035    9.572609   13.225439    ( 0.0000,  0.0000,  0.0000)
  97 O      6.109204    7.603012   13.122729    ( 0.0000,  0.0000,  0.0000)
  98 Ti     4.136594    7.721384   13.814445    ( 0.0000,  0.0000,  0.0000)
  99 Ti     9.477901    9.603321   14.091457    ( 0.0000,  0.0000,  0.0000)
 100 Ti     1.954101    9.553885   15.014037    ( 0.0000,  0.0000,  0.0000)
 101 Ti     7.089446    7.580906   14.589952    ( 0.0000,  0.0000,  0.0000)
 102 O      2.389129    7.642300   14.791428    ( 0.0000,  0.0000,  0.0000)
 103 O      7.578534    9.603079   14.786786    ( 0.0000,  0.0000,  0.0000)
 104 O      0.220749    9.574112   15.597549    ( 0.0000,  0.0000,  0.0000)
 105 O      5.372130    7.970684   15.470644    ( 0.0000,  0.0000,  0.0000)
 106 O      8.970032    7.631916   14.141401    ( 0.0000,  0.0000,  0.0000)
 107 O      3.813973    9.563375   13.932214    ( 0.0000,  0.0000,  0.0000)
 108 V      4.900291    9.593039   16.284122    ( 0.0000,  0.0000,  0.0000)
 109 V      3.862720    3.826207   16.807610    ( 0.0000,  0.0000,  0.0000)
 110 O      4.509042    3.821801   18.252939    ( 0.0000,  0.0000,  0.0000)
 111 O      3.188343    9.582811   16.563480    ( 0.0000,  0.0000,  0.0000)
 112 O      2.869166    2.377778   16.571770    ( 0.0000,  0.0000,  0.0000)
 113 O      5.734572    9.546627   17.629988    ( 0.0000,  0.0000,  0.0000)
 114 O      2.871901    5.281176   16.575427    ( 0.0000,  0.0000,  0.0000)

Unit cell:
           periodic     x           y           z      points  spacing
  1. axis:    yes   10.341746    0.000000    0.000000    54     0.1915
  2. axis:    yes   -0.000000   11.467000    0.000000    60     0.1911
  3. axis:    no     0.000000    0.000000   23.497201   125     0.1880

  Lengths:  10.341746  11.467000  23.497201
  Angles:   90.000000  90.000000  90.000000

Effective grid spacing dv^(1/3) = 0.1902

                     log10-error:    total        iterations:
           time      wfs    density  energy       fermi  poisson
iter:   1  20:08:59  -2.82   +inf  -956.132104    2             
iter:   2  20:09:53  -3.76  -3.23  -956.133317    2             
iter:   3  20:10:48  -3.83  -3.25  -956.128258    2             
iter:   4  20:11:42  -4.65  -3.48  -956.128284    1             
iter:   5  20:12:37  -4.32  -3.51  -956.129000    2             
iter:   6  20:13:31  -4.48  -3.55  -956.127464    2             
iter:   7  20:14:26  -5.22  -3.88  -956.127294    2             
iter:   8  20:15:20  -5.95  -4.04  -956.127211    1             
iter:   9  20:16:15  -5.78  -4.20  -956.127232    1             
iter:  10  20:17:09  -5.82  -4.22  -956.127200    2             
iter:  11  20:18:04  -6.70  -4.44  -956.127191    1             
iter:  12  20:18:58  -6.60  -4.45  -956.127179    1             
iter:  13  20:19:53  -6.37  -4.50  -956.127199    2             
iter:  14  20:20:47  -7.25  -4.58  -956.127185    1             
iter:  15  20:21:42  -7.00  -4.73  -956.127179    1             
iter:  16  20:22:36  -7.70  -4.84  -956.127182    1             

Converged after 16 iterations.

Dipole moment: (-13.907300, -9.462632, -1.609801) |e|*Ang

Energy contributions relative to reference atoms: (reference = -1044851.132452)

Kinetic:       +671.217574
Potential:     -863.187351
External:        +0.000000
XC:            -771.850944
Entropy (-ST):   -0.000505
Local:           +7.693791
--------------------------
Free energy:   -956.127435
Extrapolated:  -956.127182

Fermi level: -0.78872

Showing only first 2 kpts
 Kpt  Band  Eigenvalues  Occupancy
  0   458     -1.85721    0.22222
  0   459     -1.84831    0.22222
  0   460      0.05925    0.00005
  0   461      0.24416    0.00001

  1   458     -1.87852    0.44444
  1   459     -1.83740    0.44443
  1   460      0.24278    0.00001
  1   461      0.38191    0.00000



Forces in eV/Ang:
  0 O    -1.85148   -0.00088    1.55215
  1 O    -1.98328   -0.00304    1.58702
  2 Ti    3.65462    0.01138    1.76394
  3 Ti    3.90373    0.01735    1.98599
  4 Ti   -1.96016   -0.01641   -1.54833
  5 Ti   -1.62221    0.02803   -2.00680
  6 O     0.94468   -0.02910   -0.21899
  7 O     0.83098   -0.02141   -0.20485
  8 O    -0.67990   -0.01573   -0.80027
  9 O    -0.77865    0.00862   -0.63903
 10 O    -0.31848   -0.03848   -0.82784
 11 O    -0.19052    0.03272   -0.89725
 12 O    -0.00464   -0.00145    0.00809
 13 O     0.00388   -0.00469    0.02823
 14 Ti   -0.02822   -0.05931   -0.00645
 15 Ti    0.03972   -0.00449    0.03764
 16 Ti   -0.00812    0.03565    0.05551
 17 Ti    0.02734    0.04587   -0.02961
 18 O     0.04590    0.04073    0.00581
 19 O     0.03002   -0.00177   -0.07594
 20 O     0.01247   -0.02542    0.06826
 21 O     0.09882    0.00043    0.09733
 22 O     0.02288   -0.01877    0.09546
 23 O     0.03951    0.01270    0.10207
 24 O     0.05139    0.02431    0.01511
 25 O     0.04105   -0.05656    0.09420
 26 Ti   -0.00557    0.02055   -0.06466
 27 Ti   -0.04330    0.02461   -0.08327
 28 Ti   -0.05853    0.10362    0.04856
 29 Ti    0.14598   -0.06296   -0.02081
 30 O     0.06277   -0.02455   -0.01286
 31 O    -0.08378   -0.06909    0.12457
 32 O     0.05062    0.02494   -0.07547
 33 O    -0.10615   -0.10030    0.08004
 34 O    -0.18265   -0.07458    0.28713
 35 O    -0.05096   -0.04063    0.01248
 36 O    -1.83486    0.00424    1.56745
 37 O    -2.07278    0.00464    1.56124
 38 Ti    3.59973   -0.01551    1.63117
 39 Ti    3.89284   -0.03187    1.98751
 40 Ti   -1.97859    0.00185   -1.54709
 41 Ti   -1.44183   -0.03340   -2.10004
 42 O     0.96032    0.02465   -0.19149
 43 O     0.82540    0.07015   -0.20323
 44 O    -0.67303    0.01875   -0.77553
 45 O    -0.79697    0.01572   -0.66885
 46 O    -0.32793    0.01110   -0.85623
 47 O    -0.19120   -0.00617   -0.87978
 48 O    -0.01121    0.00069   -0.01560
 49 O    -0.02582   -0.00077    0.05977
 50 Ti   -0.00093   -0.06619    0.00512
 51 Ti    0.04774    0.00835    0.08055
 52 Ti    0.00169   -0.02479    0.10815
 53 Ti    0.04276    0.12360    0.00459
 54 O     0.02901    0.01596   -0.00690
 55 O     0.02862   -0.05115   -0.03728
 56 O     0.00897    0.01565    0.03653
 57 O     0.05563    0.01139    0.11807
 58 O     0.00094   -0.04236   -0.01935
 59 O     0.05137   -0.00072    0.09825
 60 O     0.08131   -0.00029   -0.03781
 61 O    -0.09295   -0.01609    0.04017
 62 Ti    0.02016   -0.06504    0.05904
 63 Ti   -0.29737    0.19758   -0.03143
 64 Ti   -0.04292   -0.14374    0.02442
 65 Ti    0.06596    0.37254    0.07998
 66 O     0.07586    0.02529    0.17495
 67 O     0.12717   -0.07300    0.18195
 68 O     0.10344   -0.04194   -0.07441
 69 O     0.00967   -0.01949   -0.04524
 70 O    -0.14049   -0.03357   -0.00713
 71 O    -0.02923   -0.05939    0.02284
 72 O    -1.85974   -0.00184    1.56915
 73 O    -1.96581    0.00215    1.60796
 74 Ti    3.61304    0.02557    1.72508
 75 Ti    3.85778    0.00599    1.92883
 76 Ti   -1.86853    0.02496   -1.48119
 77 Ti   -1.54307   -0.03453   -1.93545
 78 O     0.95783    0.01625   -0.21520
 79 O     0.84134   -0.02835   -0.19037
 80 O    -0.69253   -0.01583   -0.66546
 81 O    -0.71193    0.01180   -0.61468
 82 O    -0.33270    0.02837   -0.88348
 83 O    -0.21161   -0.03276   -0.86964
 84 O     0.00981   -0.00376    0.01062
 85 O    -0.02382   -0.01541   -0.07738
 86 Ti   -0.07180   -0.09563    0.09799
 87 Ti    0.03060   -0.02327    0.12518
 88 Ti   -0.01703    0.02888    0.01988
 89 Ti   -0.02997    0.07627   -0.16368
 90 O     0.07811    0.03983   -0.00097
 91 O     0.05366    0.04428   -0.01188
 92 O    -0.01606    0.02555    0.03491
 93 O     0.13334    0.02198    0.12156
 94 O     0.05761   -0.01856    0.06532
 95 O     0.03513    0.02611    0.10234
 96 O     0.03009   -0.01634   -0.00971
 97 O    -0.34263   -0.03913   -0.78904
 98 Ti   -0.16292   -0.14218    0.03471
 99 Ti   -0.12487   -0.28857   -0.15132
100 Ti    0.02977    0.09991   -0.06558
101 Ti    0.36647    0.02738    0.25924
102 O     0.08565    0.06250    0.01762
103 O    -0.08782    0.03025    0.08332
104 O     0.11399    0.06890    0.05745
105 O    -0.16426    0.11843    0.16972
106 O     0.15213    0.05316   -0.11766
107 O     0.01882    0.04248    0.03910
108 V    -0.10150   -0.10647   -0.21998
109 V     0.07438    0.01106   -0.06135
110 O     0.07778   -0.00174    0.13963
111 O     0.07303   -0.00546    0.05360
112 O    -0.04358   -0.10580   -0.03954
113 O    -0.18972    0.16524    0.35355
114 O    -0.03303    0.12009   -0.02034

System changes: positions 

Initializing position-dependent things.

Density initialized from wave functions
                                                
                                                
                                                
                                                
                                                
                                                
                           O                    
                     O   V O                    
             O                                  
                  TiO    O      O               
                 O V  O              Ti         
           O   Ti O          Ti   O             
               O      OiO    O                  
         O     OO   OTi    Tii   OTi            
             Tii   TiO    OOO  O                
             OO   OO    O Ti    Tii             
          O Ti     Ti   TiO  O O     O          
            O   OTiO   O      TiO               
                TiO   OTiO  O O    O Ti         
         Ti     O    O Oi    Ti     O           
              OTi          OTi    O             
             O O    O O         O Ti            
                    Ti     Oi     O             
             Oi     O    O      Ti              
           O     OTi    Ti     O                
          Ti          O      O                  
               O                                
                                                
                                                
                                                
                                                

Positions:
   0 O      8.476572    1.911173    6.000000    ( 0.0000,  0.0000,  0.0000)
   1 O      3.305699    0.000000    6.000000    ( 0.0000,  0.0000,  0.0000)
   2 Ti     1.412752    0.000000    6.752957    ( 0.0000,  0.0000,  0.0000)
   3 Ti     6.583625    1.911173    6.752957    ( 0.0000,  0.0000,  0.0000)
   4 Ti     9.522250    1.911173    7.640878    ( 0.0000,  0.0000,  0.0000)
   5 Ti     4.351376    0.000000    7.640878    ( 0.0000,  0.0000,  0.0000)
   6 O      9.861551    0.000000    7.505914    ( 0.0000,  0.0000,  0.0000)
   7 O      4.690678    1.911173    7.505914    ( 0.0000,  0.0000,  0.0000)
   8 O      7.629303    1.911173    8.393834    ( 0.0000,  0.0000,  0.0000)
   9 O      2.458430    0.000000    8.393834    ( 0.0000,  0.0000,  0.0000)
  10 O      6.244323    0.000000    6.887921    ( 0.0000,  0.0000,  0.0000)
  11 O      1.073450    1.911173    6.887921    ( 0.0000,  0.0000,  0.0000)
  12 O      9.805710    1.904227    9.615848    ( 0.0000,  0.0000,  0.0000)
[...]
                                                
                                                

Positions:
   0 O      8.476572    1.911173    6.000000    ( 0.0000,  0.0000,  0.0000)
   1 O      3.305699    0.000000    6.000000    ( 0.0000,  0.0000,  0.0000)
   2 Ti     1.412752    0.000000    6.752957    ( 0.0000,  0.0000,  0.0000)
   3 Ti     6.583625    1.911173    6.752957    ( 0.0000,  0.0000,  0.0000)
   4 Ti     9.522250    1.911173    7.640878    ( 0.0000,  0.0000,  0.0000)
   5 Ti     4.351376    0.000000    7.640878    ( 0.0000,  0.0000,  0.0000)
   6 O      9.861551    0.000000    7.505914    ( 0.0000,  0.0000,  0.0000)
   7 O      4.690678    1.911173    7.505914    ( 0.0000,  0.0000,  0.0000)
   8 O      7.629303    1.911173    8.393834    ( 0.0000,  0.0000,  0.0000)
   9 O      2.458430    0.000000    8.393834    ( 0.0000,  0.0000,  0.0000)
  10 O      6.244323    0.000000    6.887921    ( 0.0000,  0.0000,  0.0000)
  11 O      1.073450    1.911173    6.887921    ( 0.0000,  0.0000,  0.0000)
  12 O      9.814374    1.910238    9.627739    ( 0.0000,  0.0000,  0.0000)
  13 O      4.631991   11.471485    9.598073    ( 0.0000,  0.0000,  0.0000)
  14 Ti     2.746373   11.473976   10.345967    ( 0.0000,  0.0000,  0.0000)
  15 Ti     8.036082    1.913869   10.383526    ( 0.0000,  0.0000,  0.0000)
  16 Ti     0.527445    1.917656   11.321090    ( 0.0000,  0.0000,  0.0000)
  17 Ti     5.730180   11.467281   11.117013    ( 0.0000,  0.0000,  0.0000)
  18 O      0.933135   11.472029   11.109210    ( 0.0000,  0.0000,  0.0000)
  19 O      6.110274    1.919365   11.059105    ( 0.0000,  0.0000,  0.0000)
  20 O      9.026431    1.930426   12.016943    ( 0.0000,  0.0000,  0.0000)
  21 O      3.874495   11.466225   11.955605    ( 0.0000,  0.0000,  0.0000)
  22 O      7.601830   11.468181   10.498848    ( 0.0000,  0.0000,  0.0000)
  23 O      2.401258    1.917736   10.508335    ( 0.0000,  0.0000,  0.0000)
  24 O      0.879179    1.910414   13.203411    ( 0.0000,  0.0000,  0.0000)
  25 O      6.097186    0.087210   13.119717    ( 0.0000,  0.0000,  0.0000)
  26 Ti     4.112614    0.067082   13.841184    ( 0.0000,  0.0000,  0.0000)
  27 Ti     9.480276    1.939839   14.080423    ( 0.0000,  0.0000,  0.0000)
  28 Ti     1.960948    1.933507   15.026144    ( 0.0000,  0.0000,  0.0000)
  29 Ti     7.072645    0.035908   14.608831    ( 0.0000,  0.0000,  0.0000)
  30 O      2.389690    0.038165   14.797977    ( 0.0000,  0.0000,  0.0000)
  31 O      7.453533    1.918916   14.893302    ( 0.0000,  0.0000,  0.0000)
  32 O      0.204650    1.946255   15.580811    ( 0.0000,  0.0000,  0.0000)
  33 O      5.357583   11.165018   15.532829    ( 0.0000,  0.0000,  0.0000)
  34 O      8.976623    0.030606   14.115476    ( 0.0000,  0.0000,  0.0000)
  35 O      3.894862    1.902522   13.979136    ( 0.0000,  0.0000,  0.0000)
  36 O      8.476572    5.733518    6.000000    ( 0.0000,  0.0000,  0.0000)
  37 O      3.305699    3.822345    6.000000    ( 0.0000,  0.0000,  0.0000)
  38 Ti     1.412752    3.822345    6.752957    ( 0.0000,  0.0000,  0.0000)
  39 Ti     6.583625    5.733518    6.752957    ( 0.0000,  0.0000,  0.0000)
  40 Ti     9.522250    5.733518    7.640878    ( 0.0000,  0.0000,  0.0000)
  41 Ti     4.351376    3.822345    7.640878    ( 0.0000,  0.0000,  0.0000)
  42 O      9.861551    3.822345    7.505914    ( 0.0000,  0.0000,  0.0000)
  43 O      4.690678    5.733518    7.505914    ( 0.0000,  0.0000,  0.0000)
  44 O      7.629303    5.733518    8.393834    ( 0.0000,  0.0000,  0.0000)
  45 O      2.458430    3.822345    8.393834    ( 0.0000,  0.0000,  0.0000)
  46 O      6.244323    3.822345    6.887921    ( 0.0000,  0.0000,  0.0000)
  47 O      1.073450    5.733518    6.887921    ( 0.0000,  0.0000,  0.0000)
  48 O      9.814409    5.745066    9.627863    ( 0.0000,  0.0000,  0.0000)
  49 O      4.639954    3.827958    9.578029    ( 0.0000,  0.0000,  0.0000)
  50 Ti     2.731181    3.831182   10.323961    ( 0.0000,  0.0000,  0.0000)
  51 Ti     8.036600    5.742620   10.383885    ( 0.0000,  0.0000,  0.0000)
  52 Ti     0.527510    5.743309   11.321860    ( 0.0000,  0.0000,  0.0000)
  53 Ti     5.748092    3.821553   11.085198    ( 0.0000,  0.0000,  0.0000)
  54 O      0.931571    3.829759   11.106059    ( 0.0000,  0.0000,  0.0000)
  55 O      6.111126    5.738686   11.060717    ( 0.0000,  0.0000,  0.0000)
  56 O      9.025656    5.733766   12.017270    ( 0.0000,  0.0000,  0.0000)
  57 O      3.893435    3.831896   11.901676    ( 0.0000,  0.0000,  0.0000)
  58 O      7.611430    3.827880   10.485449    ( 0.0000,  0.0000,  0.0000)
  59 O      2.400335    5.740532   10.508512    ( 0.0000,  0.0000,  0.0000)
  60 O      0.878047    5.760982   13.203284    ( 0.0000,  0.0000,  0.0000)
  61 O      6.104865    3.836309   13.119752    ( 0.0000,  0.0000,  0.0000)
  62 Ti     4.079256    3.884273   13.760145    ( 0.0000,  0.0000,  0.0000)
  63 Ti     9.479187    5.734830   14.080971    ( 0.0000,  0.0000,  0.0000)
  64 Ti     1.961695    5.739175   15.027670    ( 0.0000,  0.0000,  0.0000)
  65 Ti     6.999727    3.833216   14.645864    ( 0.0000,  0.0000,  0.0000)
  66 O      2.325446    3.834946   14.463611    ( 0.0000,  0.0000,  0.0000)
  67 O      7.451877    5.754754   14.892316    ( 0.0000,  0.0000,  0.0000)
  68 O      0.203738    5.738511   15.580355    ( 0.0000,  0.0000,  0.0000)
  69 O      5.214920    3.840544   15.546846    ( 0.0000,  0.0000,  0.0000)
  70 O      8.917454    3.836568   14.134671    ( 0.0000,  0.0000,  0.0000)
  71 O      3.882860    5.769955   13.973317    ( 0.0000,  0.0000,  0.0000)
  72 O      8.476572    9.555862    6.000000    ( 0.0000,  0.0000,  0.0000)
  73 O      3.305699    7.644690    6.000000    ( 0.0000,  0.0000,  0.0000)
  74 Ti     1.412752    7.644690    6.752957    ( 0.0000,  0.0000,  0.0000)
  75 Ti     6.583625    9.555862    6.752957    ( 0.0000,  0.0000,  0.0000)
  76 Ti     9.522250    9.555862    7.640878    ( 0.0000,  0.0000,  0.0000)
  77 Ti     4.351376    7.644690    7.640878    ( 0.0000,  0.0000,  0.0000)
  78 O      9.861551    7.644690    7.505914    ( 0.0000,  0.0000,  0.0000)
  79 O      4.690678    9.555862    7.505914    ( 0.0000,  0.0000,  0.0000)
  80 O      7.629303    9.555862    8.393834    ( 0.0000,  0.0000,  0.0000)
  81 O      2.458430    7.644690    8.393834    ( 0.0000,  0.0000,  0.0000)
  82 O      6.244323    7.644690    6.887921    ( 0.0000,  0.0000,  0.0000)
  83 O      1.073450    9.555862    6.887921    ( 0.0000,  0.0000,  0.0000)
  84 O      9.813145    9.561549    9.634560    ( 0.0000,  0.0000,  0.0000)
  85 O      4.633217    7.649391    9.596580    ( 0.0000,  0.0000,  0.0000)
  86 Ti     2.745100    7.655800   10.343830    ( 0.0000,  0.0000,  0.0000)
  87 Ti     8.038708    9.562620   10.383440    ( 0.0000,  0.0000,  0.0000)
  88 Ti     0.534786    9.564251   11.331426    ( 0.0000,  0.0000,  0.0000)
  89 Ti     5.731903    7.643703   11.114696    ( 0.0000,  0.0000,  0.0000)
  90 O      0.933041    7.655005   11.108827    ( 0.0000,  0.0000,  0.0000)
  91 O      6.111665    9.562516   11.090046    ( 0.0000,  0.0000,  0.0000)
  92 O      9.047326    9.567883   12.032059    ( 0.0000,  0.0000,  0.0000)
  93 O      3.876720    7.663617   11.951937    ( 0.0000,  0.0000,  0.0000)
  94 O      7.603874    7.655647   10.500092    ( 0.0000,  0.0000,  0.0000)
  95 O      2.403853    9.562289   10.504731    ( 0.0000,  0.0000,  0.0000)
  96 O      0.926349    9.567977   13.220091    ( 0.0000,  0.0000,  0.0000)
  97 O      6.092808    7.596829   13.121784    ( 0.0000,  0.0000,  0.0000)
  98 Ti     4.112861    7.682869   13.836207    ( 0.0000,  0.0000,  0.0000)
  99 Ti     9.463353    9.571216   14.089687    ( 0.0000,  0.0000,  0.0000)
 100 Ti     1.943655    9.567874   14.996050    ( 0.0000,  0.0000,  0.0000)
 101 Ti     7.072015    7.634719   14.610887    ( 0.0000,  0.0000,  0.0000)
 102 O      2.390541    7.635031   14.801676    ( 0.0000,  0.0000,  0.0000)
 103 O      7.565899    9.571673   14.836147    ( 0.0000,  0.0000,  0.0000)
 104 O      0.216971    9.572286   15.591414    ( 0.0000,  0.0000,  0.0000)
 105 O      5.363931    7.990376   15.535930    ( 0.0000,  0.0000,  0.0000)
 106 O      8.973871    7.643893   14.115257    ( 0.0000,  0.0000,  0.0000)
 107 O      3.805443    9.562668   13.942107    ( 0.0000,  0.0000,  0.0000)
 108 V      4.826330    9.576551   16.386441    ( 0.0000,  0.0000,  0.0000)
 109 V      3.866020    3.834018   16.843741    ( 0.0000,  0.0000,  0.0000)
 110 O      4.530446    3.829624   18.283292    ( 0.0000,  0.0000,  0.0000)
 111 O      3.111082    9.571020   16.581183    ( 0.0000,  0.0000,  0.0000)
 112 O      2.874606    2.373066   16.609101    ( 0.0000,  0.0000,  0.0000)
 113 O      5.510108    9.573538   17.818747    ( 0.0000,  0.0000,  0.0000)
 114 O      2.873287    5.296457   16.611042    ( 0.0000,  0.0000,  0.0000)

Unit cell:
           periodic     x           y           z      points  spacing
  1. axis:    yes   10.341746    0.000000    0.000000    54     0.1915
  2. axis:    yes   -0.000000   11.467000    0.000000    60     0.1911
  3. axis:    no     0.000000    0.000000   23.497201   125     0.1880

  Lengths:  10.341746  11.467000  23.497201
  Angles:   90.000000  90.000000  90.000000

Effective grid spacing dv^(1/3) = 0.1902

                     log10-error:    total        iterations:
           time      wfs    density  energy       fermi  poisson
iter:   1  11:09:49  -5.41   +inf  -956.324464    2             
iter:   2  11:10:44  -6.31  -4.48  -956.324465    1             
iter:   3  11:11:38  -6.68  -4.49  -956.324448    2             
iter:   4  11:12:33  -7.07  -4.65  -956.324446    1             
iter:   5  11:13:27  -7.08  -4.73  -956.324444    1             
iter:   6  11:14:21  -7.48  -5.03  -956.324443    1             

Converged after 6 iterations.

Dipole moment: (-12.948670, -10.523737, -1.656455) |e|*Ang

Energy contributions relative to reference atoms: (reference = -1044851.132452)

Kinetic:       +653.933641
Potential:     -849.553029
External:        +0.000000
XC:            -768.444384
Entropy (-ST):   -0.000530
Local:           +7.739594
--------------------------
Free energy:   -956.324708
Extrapolated:  -956.324443

Fermi level: -0.80130

Showing only first 2 kpts
 Kpt  Band  Eigenvalues  Occupancy
  0   458     -1.85963    0.22222
  0   459     -1.85464    0.22222
  0   460      0.03618    0.00005
  0   461      0.24718    0.00001

  1   458     -1.89324    0.44444
  1   459     -1.84128    0.44443
  1   460      0.22230    0.00002
  1   461      0.38803    0.00000



Forces in eV/Ang:
  0 O    -1.82064   -0.00036    1.56111
  1 O    -1.93873    0.00001    1.61194
  2 Ti    3.62895   -0.00723    1.77120
  3 Ti    3.93639    0.01144    2.02000
  4 Ti   -2.00439   -0.00679   -1.44496
  5 Ti   -1.60294    0.01391   -1.93746
  6 O     0.95568   -0.01154   -0.20663
  7 O     0.80475   -0.01922   -0.17841
  8 O    -0.63585   -0.00311   -0.67228
  9 O    -0.68236    0.01113   -0.43567
 10 O    -0.34372   -0.01627   -0.87863
 11 O    -0.18448    0.02626   -0.88952
 12 O     0.00007   -0.00035   -0.00177
 13 O     0.00125    0.00033    0.00056
 14 Ti    0.00041    0.00163    0.00031
 15 Ti   -0.00087    0.00010   -0.00102
 16 Ti   -0.00087   -0.00118    0.00084
 17 Ti   -0.00227    0.00001   -0.00104
 18 O     0.00043   -0.00055    0.00018
 19 O    -0.00149    0.00137   -0.00187
 20 O    -0.00028    0.00144    0.00045
 21 O     0.00434    0.00081    0.00290
 22 O     0.00209   -0.00136    0.00392
 23 O     0.00200   -0.00034    0.00057
 24 O    -0.00096   -0.00001   -0.00336
 25 O    -0.00236   -0.00017    0.00294
 26 Ti    0.00120    0.00050    0.00143
 27 Ti    0.00250    0.00111    0.00046
 28 Ti    0.00120   -0.00009   -0.00068
 29 Ti    0.00269   -0.00092    0.00217
 30 O     0.00124    0.00102    0.00541
 31 O     0.00372    0.00064    0.00049
 32 O    -0.00160   -0.00170   -0.00091
 33 O    -0.00115   -0.00561    0.00562
 34 O     0.00190   -0.00551    0.00058
 35 O    -0.00594   -0.00026    0.00254
 36 O    -1.81956    0.00213    1.56107
 37 O    -2.01794    0.00087    1.58773
 38 Ti    3.57560   -0.00060    1.65908
 39 Ti    3.93645   -0.00989    2.02143
 40 Ti   -2.00732    0.00623   -1.44198
 41 Ti   -1.45203   -0.00110   -2.02305
 42 O     0.96865    0.00694   -0.19643
 43 O     0.80427    0.03234   -0.18178
 44 O    -0.63692    0.01799   -0.67191
 45 O    -0.71727    0.00958   -0.48455
 46 O    -0.34836   -0.00087   -0.89206
 47 O    -0.18332   -0.02291   -0.88949
 48 O    -0.00128   -0.00089   -0.00263
 49 O     0.00172   -0.00102    0.00223
 50 Ti   -0.00054    0.00170    0.00061
 51 Ti   -0.00105    0.00145   -0.00005
 52 Ti    0.00054   -0.00007   -0.00037
 53 Ti   -0.00143   -0.00297   -0.00186
 54 O     0.00083    0.00075   -0.00138
 55 O    -0.00022   -0.00108    0.00144
 56 O     0.00300    0.00365   -0.00140
 57 O     0.00186    0.00010    0.00475
 58 O    -0.00227    0.00155   -0.00292
 59 O     0.00488   -0.00048   -0.00137
 60 O    -0.00148   -0.00291    0.00221
 61 O     0.00068   -0.00309    0.00219
 62 Ti   -0.00329   -0.00082    0.00296
 63 Ti    0.00115   -0.00110   -0.00157
 64 Ti    0.00238   -0.00332   -0.00034
 65 Ti    0.00128   -0.00077   -0.00055
 66 O     0.00420    0.00478    0.00074
 67 O     0.00285   -0.00409   -0.00328
 68 O    -0.00239    0.00030    0.00291
 69 O    -0.00162   -0.00098    0.00135
 70 O     0.00089    0.00146   -0.00140
 71 O     0.00332   -0.00129    0.00272
 72 O    -1.81694    0.00067    1.57419
 73 O    -1.94535    0.00150    1.61091
 74 Ti    3.62254    0.01123    1.76064
 75 Ti    3.91431    0.00001    2.00099
 76 Ti   -1.97230    0.00085   -1.43920
 77 Ti   -1.58768   -0.01826   -1.94361
 78 O     0.95740    0.02593   -0.20632
 79 O     0.81322    0.00726   -0.16881
 80 O    -0.62277    0.00721   -0.56190
 81 O    -0.68276    0.00861   -0.43604
 82 O    -0.34434    0.01732   -0.88180
 83 O    -0.20129   -0.00332   -0.87969
 84 O    -0.00165   -0.00143   -0.00052
 85 O    -0.00179    0.00188    0.00037
 86 Ti    0.00320    0.00123    0.00369
 87 Ti    0.00028    0.00014    0.00001
 88 Ti    0.00057   -0.00060   -0.00081
 89 Ti   -0.00250    0.00013   -0.00293
 90 O    -0.00162   -0.00057    0.00084
 91 O    -0.00216    0.00260   -0.00002
 92 O     0.00268   -0.00270    0.00070
 93 O    -0.00222    0.00077    0.00303
 94 O    -0.00421   -0.00001   -0.00079
 95 O     0.00270    0.00096   -0.00027
 96 O     0.00283   -0.00083    0.00415
 97 O    -0.00575    0.00139   -0.00132
 98 Ti    0.00076    0.00445    0.00559
 99 Ti    0.00036    0.00126   -0.00477
100 Ti    0.00211    0.00337   -0.00092
101 Ti    0.00099   -0.00000   -0.00459
102 O     0.00127    0.00063    0.00297
103 O    -0.00080    0.00169   -0.00150
104 O    -0.00174    0.00441    0.00425
105 O    -0.00162    0.00334    0.00223
106 O     0.00167   -0.00108   -0.00165
107 O     0.00343    0.00175    0.00167
108 V    -0.00463    0.00141   -0.00740
109 V    -0.00384   -0.00076   -0.00258
110 O     0.00155    0.00143    0.00356
111 O    -0.00070   -0.00027   -0.00152
112 O    -0.00328   -0.00175   -0.00330
113 O    -0.00315    0.00148   -0.00043
114 O     0.00072   -0.00064   -0.00388

Timing:                                      incl.     excl.
-------------------------------------------------------------------
Density initialized from wave functions:   164.200   164.199   0.3% |
 Symmetrize density:                         0.001     0.001   0.0% |
Forces:                                   1097.626  1097.626   1.9% ||
Hamiltonian:                                59.506     1.160   0.0% |
 Atomic:                                    16.047     0.267   0.0% |
  XC Correction:                            15.781    15.781   0.0% |
 Calculate atomic Hamiltonians:             29.470    29.470   0.1% |
 Communicate:                                3.072     3.072   0.0% |
 Initialize Hamiltonian:                     0.001     0.001   0.0% |
 Poisson:                                    0.069     0.069   0.0% |
 XC 3D grid:                                 9.686     9.686   0.0% |
LCAO initialization:                       186.558     1.599   0.0% |
 LCAO eigensolver:                          64.016     0.098   0.0% |
  Calculate projections:                     0.000     0.000   0.0% |
  DenseAtomicCorrection:                     0.001     0.001   0.0% |
  Distribute overlap matrix:                 5.102     5.102   0.0% |
  Orbital Layouts:                          52.855    52.855   0.1% |
  Potential matrix:                          0.040     0.040   0.0% |
  Sum over cells:                            5.921     5.921   0.0% |
 LCAO to grid:                             115.620   115.620   0.2% |
 Set positions (LCAO WFS):                   5.323     4.381   0.0% |
  Basic WFS set positions:                   0.003     0.003   0.0% |
  Basis functions set positions:             0.001     0.001   0.0% |
  P tci:                                     0.036     0.036   0.0% |
  ST tci:                                    0.619     0.619   0.0% |
  mktci:                                     0.284     0.284   0.0% |
PWDescriptor:                                0.180     0.180   0.0% |
Redistribute:                                0.120     0.120   0.0% |
SCF-cycle:                               56421.931     1.502   0.0% |
 Davidson:                               53662.701 12845.333  22.1% |--------|
  Apply H:                                7770.132  7473.401  12.8% |----|
   HMM T:                                  296.731   296.731   0.5% |
  Subspace diag:                          5911.918     0.736   0.0% |
   calc_h_matrix:                         3485.209   907.354   1.6% ||
    Apply H:                              2577.855  2470.224   4.2% |-|
     HMM T:                                107.631   107.631   0.2% |
   diagonalize:                            764.016   764.016   1.3% ||
   rotate_psi:                            1661.958  1661.958   2.9% ||
  calc. matrices:                        11963.328  6859.438  11.8% |----|
   Apply H:                               5103.891  4922.188   8.5% |--|
    HMM T:                                 181.703   181.703   0.3% |
  diagonalize:                           11559.007 11559.007  19.8% |-------|
  rotate_psi:                             3612.982  3612.982   6.2% |-|
 Density:                                 1728.569     0.025   0.0% |
  Atomic density matrices:                  11.796    11.796   0.0% |
  Mix:                                     355.777   355.777   0.6% |
  Multipole moments:                         0.368     0.368   0.0% |
  Pseudo density:                         1360.604  1360.586   2.3% ||
   Symmetrize density:                       0.018     0.018   0.0% |
 Hamiltonian:                              617.148    12.163   0.0% |
  Atomic:                                  166.383     2.717   0.0% |
   XC Correction:                          163.666   163.666   0.3% |
  Calculate atomic Hamiltonians:           305.637   305.637   0.5% |
  Communicate:                              31.975    31.975   0.1% |
  Poisson:                                   0.678     0.678   0.0% |
  XC 3D grid:                              100.311   100.311   0.2% |
 Orthonormalize:                           412.011     0.097   0.0% |
  calc_s_matrix:                            39.405    39.405   0.1% |
  inverse-cholesky:                         35.050    35.050   0.1% |
  projections:                             264.785   264.785   0.5% |
  rotate_psi_s:                             72.675    72.675   0.1% |
Set symmetry:                                0.001     0.001   0.0% |
Other:                                     308.179   308.179   0.5% |
-------------------------------------------------------------------
Total:                                             58238.302 100.0%

Memory usage: 1.33 GiB
Date: Sat May 25 11:14:33 2019
