156
Lattice="10.3417463 0.0 0.0 -0.0 15.28938 0.0 0.0 0.0 23.4972008" Properties=species:S:1:pos:R:3:forces:R:3 unique_id=1f6ef7f0fc2853dc7c18cff1d3d94d0b confid=102 relax_id=102 energy=-1152.2148961701469 pbc="T T F"
O       8.20913607       2.01304928       6.02798432       0.00024444       0.00023655      -0.00073955 
O       3.05809733       0.09005472       6.06578939       0.00061811      -0.00005821      -0.00085432 
Ti       1.42483912       0.09687727       6.91633669      -0.00091057      -0.00043542       0.00120025 
Ti       6.57272468       1.99837214       6.88283731       0.00004832       0.00012005      -0.00002045 
Ti       9.38417040       2.00515241       7.49752749       0.00065048       0.00010221      -0.00035834 
Ti       4.22458583       0.09091294       7.55290540       0.00029870      -0.00028970       0.00033500 
O       9.79522687       0.09246013       7.46684544       0.00091486       0.00057462      -0.00006278 
O       4.63691529       2.00142872       7.51519872       0.00016262       0.00012201      -0.00049151 
O       7.53552723       1.97294587       8.43773237       0.00017685      -0.00011847      -0.00086093 
O       2.38408320       0.09273898       8.46981846       0.00008523       0.00059719      -0.00019927 
O       6.05421562       0.08929679       6.64128307      -0.00035786       0.00058470      -0.00106523 
O       0.91350000       2.00579406       6.71742664       0.00039484       0.00028013      -0.00044642 
O       9.77838708       2.00814767       9.54037862       0.00035360       0.00017160      -0.00013236 
O       4.63082077      15.38258402       9.61723018      -0.00014622      -0.00001234      -0.00015190 
Ti       2.87572294       0.10661036      10.44811744      -0.00020713      -0.00005144      -0.00001961 
Ti       7.98384475       2.00338702      10.40451426      -0.00055853       0.00041043      -0.00078135 
Ti       0.52553917       2.00504953      11.12434581       0.00179757       0.00036834      -0.00075027 
Ti       5.71708379      15.38957886      11.30055574      -0.00032452       0.00115127      -0.00111494 
O       0.93244220      15.38244826      11.06965716       0.00080281       0.00007543      -0.00096310 
O       6.11383491       2.00505518      11.12189829      -0.00043359       0.00014143      -0.00217751 
O       9.07608379       2.00544885      11.96908810       0.00063802       0.00053677      -0.00109194 
O       3.89130550       0.11412575      12.06406550      -0.00044025       0.00053297      -0.00079624 
O       7.58569852      15.37900115      10.51183771      -0.00025762       0.00025848      -0.00018287 
O       2.43878839       2.00513469      10.51151930       0.00034989       0.00004919      -0.00007292 
O       0.95021764       2.00502895      13.10155050       0.00024307       0.00026907      -0.00187731 
O       6.10412040      15.40935377      13.24483895       0.00050869       0.00315661       0.00066966 
Ti       4.32495427       0.10882252      14.12098320       0.00122720       0.00132491      -0.00143237 
Ti       9.40378674       2.00492925      13.99650104       0.00135262       0.00066226       0.00029231 
Ti       1.86549790       2.00608493      14.67696348      -0.00189551       0.00026996      -0.00010278 
Ti       7.14853309      15.38950707      14.98594055       0.00433461      -0.00005556       0.00370724 
O       2.34638807       0.07887917      14.89517582      -0.00099476      -0.00126634      -0.00215624 
O       7.60626221       2.00549080      14.90087570       0.00022044      -0.00024847      -0.00280483 
O       0.21742625       2.00559239      15.48986827      -0.00101940       0.00041436      -0.00229210 
O       5.40979049      15.32248131      15.63018623       0.00363971      -0.00053830      -0.00171747 
O       8.99246380      15.37093908      13.95752129       0.00019327      -0.00041589      -0.00121080 
O       3.85689151       2.00622604      14.23341092       0.00056834       0.00025528       0.00144904 
O       8.20987781       5.81887261       6.00765684       0.00079660      -0.00008737      -0.00126141 
O       3.06381701       3.91792621       6.07397088       0.00051763       0.00024299      -0.00104447 
Ti       1.42824175       3.91366257       6.91870308      -0.00081452       0.00019578       0.00086262 
Ti       6.56579016       5.83466391       6.84867563       0.00151197       0.00057416      -0.00054483 
Ti       9.39376943       5.82803891       7.46960727      -0.00057865       0.00032083      -0.00098223 
Ti       4.22888206       3.91750234       7.56651308       0.00033900       0.00037281       0.00033800 
O       9.79484178       3.91826959       7.47270341       0.00081963      -0.00054289      -0.00016791 
O       4.64122188       5.83702109       7.50737447      -0.00011141      -0.00010934      -0.00082163 
O       7.52939143       5.87802972       8.41153592       0.00025759       0.00020669       0.00029154 
O       2.38253904       3.91707024       8.47502308       0.00020528       0.00014146      -0.00060321 
O       6.07054282       3.91820910       6.70404135      -0.00029130      -0.00045526      -0.00077179 
O       0.91162463       5.83087925       6.70178353       0.00089593       0.00010224      -0.00039922 
O       9.78390916       5.81868115       9.51116936      -0.00039462      -0.00024425      -0.00165018 
O       4.62980588       3.91692505       9.61862102      -0.00010710       0.00023189      -0.00041209 
Ti       2.87296784       3.90391973      10.45141867      -0.00015603       0.00043238      -0.00008604 
Ti       7.94932632       5.82272997      10.33517720       0.00059613       0.00120189      -0.00052612 
Ti       0.55422593       5.82120629      11.06318652      -0.00004750       0.00148736      -0.00197358 
Ti       5.71907571       3.90979661      11.29988942      -0.00067196      -0.00079397      -0.00118183 
O       0.93372537       3.91809324      11.07287205       0.00042943       0.00020604      -0.00092956 
O       6.11570623       5.82909964      11.11424015       0.00041078       0.00035860       0.00057072 
O       9.07267944       5.82847974      11.90334803       0.00102703       0.00270769       0.00043521 
O       3.89200174       3.89726605      12.06455763      -0.00047317       0.00003337      -0.00075256 
O       7.58396947       3.91909150      10.50040055      -0.00028585      -0.00006225      -0.00059471 
O       2.44442841       5.82181592      10.49993059       0.00029495       0.00049963      -0.00064916 
O       0.90469525       5.82566090      13.12381117       0.00000373      -0.00079127       0.00164710 
O       6.10639981       3.89022138      13.23912578      -0.00029256      -0.00314477       0.00079831 
Ti       4.32519129       3.90320503      14.11834705       0.00076304      -0.00093816      -0.00201208 
Ti       9.29741107       5.83524014      13.78916387       0.00269559      -0.00029065       0.00038670 
Ti       1.89064579       5.80329705      14.64523471      -0.00362907      -0.00056429      -0.00143603 
Ti       7.15036966       3.91079771      14.98412784       0.00406645       0.00022461       0.00264658 
O       2.34744906       3.93369147      14.89441455      -0.00152473       0.00181154      -0.00231890 
O       7.54752758       5.86292111      14.67197443      -0.00096381       0.00164355      -0.00005387 
O       0.06095136       5.81043990      15.55864173       0.00030379       0.00075076      -0.00253405 
O       5.41115938       3.97981437      15.62650075       0.00266822       0.00102068      -0.00153674 
O       8.99387537       3.92905625      13.95788551       0.00029312       0.00008421      -0.00158388 
O       3.78363875       5.82541326      14.10990290       0.00051900       0.00238822      -0.00215118 
O       8.24208888       9.65010228       6.00421914       0.00081592      -0.00012332      -0.00182724 
O       3.05374502       7.74732162       6.05289828       0.00016390       0.00028772      -0.00098293 
Ti       1.42135459       7.74425926       6.91078082      -0.00079958      -0.00021717       0.00006255 
Ti       6.59113523       9.65198362       6.82767306       0.00030158      -0.00000799       0.00246200 
Ti       9.38330957       9.65069066       7.51141202      -0.00065085      -0.00007548      -0.00046989 
Ti       4.23075464       7.74759073       7.52550901       0.00095661       0.00020918      -0.00042774 
O       9.80005929       7.74224641       7.48219011       0.00021860      -0.00022843      -0.00091538 
O       4.65449542       9.65199528       7.50280423       0.00090186      -0.00013550      -0.00024237 
O       7.55019617       9.65442057       8.39218516       0.00066392       0.00034896      -0.00220909 
O       2.39156235       7.74131835       8.46107503      -0.00000493       0.00083841      -0.00017238 
O       6.05738566       7.74362772       6.61100635       0.00036444      -0.00011563      -0.00138004 
O       0.91464416       9.65091656       6.71497458       0.00109559      -0.00025688      -0.00118472 
O       9.77996013       9.64953418       9.60210243      -0.00009301       0.00013883       0.00001178 
O       4.64459313       7.74924670       9.59313307      -0.00076110       0.00039517      -0.00054471 
Ti       2.85738798       7.74548473      10.42491976      -0.00221154      -0.00062186      -0.00139189 
Ti       7.97547746       9.65081769      10.35721041      -0.00050122       0.00005909      -0.00314955 
Ti       0.55030572       9.65051203      11.16910111       0.00080516       0.00020783      -0.00051689 
Ti       5.71590854       7.74682644      11.23020087       0.00076750       0.00121586      -0.00282521 
O       0.94500300       7.72975355      11.08031733      -0.00111332      -0.00214319      -0.00082038 
O       6.10830075       9.65096396      11.14525995      -0.00121578       0.00020289      -0.00355140 
O       3.89871598       7.68283386      12.02514408       0.00041680       0.00025275       0.00097790 
O       7.61770849       7.74183707      10.55167051      -0.00019222      -0.00057021      -0.00095963 
O       2.48394946       9.65067008      10.52415698      -0.00215669       0.00007879       0.00100864 
O       0.80553596       9.65059049      13.17108239      -0.00169335       0.00051347       0.00383292 
O       6.08638725       7.78694673      13.21463273       0.00051179       0.00409418       0.00213645 
Ti       4.24753869       7.75441604      14.03425917       0.00081522      -0.00049418      -0.00351684 
Ti       9.44145682       9.65077908      14.16335189      -0.00117975      -0.00049781      -0.00196978 
Ti       1.88647690       9.65253669      14.79732021       0.00104710       0.00042235      -0.00288578 
Ti       7.05727366       7.76769482      14.86304377       0.00183391      -0.00348910       0.00105379 
O       2.33791730       7.70662445      14.87213499      -0.00183888       0.00124854      -0.00038771 
O       7.57854906       9.65042360      15.04393944      -0.00127980       0.00021839       0.00261249 
O       0.22402578       9.65240798      15.63836859      -0.00084911      -0.00070475       0.00683204 
O       5.32643850       7.80722457      15.58592344       0.00034753       0.00001284       0.00091671 
O       8.95527413       7.78718091      13.92892399      -0.00042913       0.00020933      -0.00004309 
O       3.76354159       9.65108864      13.98722620      -0.00327738       0.00045655       0.00027444 
O       8.21306538      13.47443705       6.00205956       0.00070322       0.00016668      -0.00118688 
O       3.05413292      11.55662217       6.05293651       0.00026610      -0.00011024      -0.00049490 
Ti       1.42128484      11.55710899       6.91010788      -0.00017053       0.00073205       0.00027653 
Ti       6.56499593      13.47089715       6.83514225       0.00126733      -0.00027478      -0.00075733 
Ti       9.39165611      13.47234643       7.46720496       0.00019507      -0.00005533      -0.00097522 
Ti       4.23147238      11.55538499       7.52548184       0.00037461       0.00008768      -0.00024100 
O       9.79906045      11.55880730       7.48331159       0.00033304       0.00047293      -0.00083257 
O       4.64468742      13.46565862       7.50872111       0.00000247       0.00042660      -0.00076219 
O       7.52479992      13.45089497       8.40425705       0.00010097       0.00007341       0.00034663 
O       2.39141290      11.56118094       8.46049382       0.00017933      -0.00131278       0.00014925 
O       6.05761519      11.56031038       6.60848029       0.00042433       0.00046595      -0.00136044 
O       0.91029168      13.46887987       6.70000259       0.00105895       0.00015266       0.00049193 
O       9.78143521      13.48094885       9.50858488      -0.00000065       0.00042564      -0.00169029 
O       4.64382290      11.55254085       9.59242435      -0.00076630      -0.00017512      -0.00023348 
Ti       2.85617354      11.55599093      10.42365878      -0.00212429       0.00089862      -0.00151439 
Ti       7.94757765      13.47922449      10.33065948       0.00038476      -0.00088356      -0.00030267 
Ti       0.55232572      13.48014582      11.06175271       0.00020190      -0.00113120      -0.00161802 
Ti       5.71522292      11.55494617      11.22879383       0.00102712      -0.00088413      -0.00300384 
O       0.94431899      11.57137598      11.07955094      -0.00093451       0.00259779      -0.00061712 
O       6.11379600      13.47134740      11.11370449       0.00071992       0.00002441       0.00029554 
O       9.07138040      13.46967629      11.90107571       0.00072703      -0.00268000       0.00097293 
O       3.89787712      11.61906601      12.02404107       0.00069331       0.00009175       0.00145424 
O       7.61568992      11.56092850      10.54653704      -0.00023986       0.00095657      -0.00080466 
O       2.44345127      13.47922839      10.49893506       0.00004816      -0.00008029      -0.00043314 
O       0.90281109      13.47795610      13.12214970       0.00022665       0.00121506       0.00159744 
O       6.08560319      11.51611070      13.21407364       0.00102373      -0.00348759       0.00243939 
Ti       4.24624401      11.54863549      14.03062020       0.00065360       0.00165694      -0.00368423 
Ti       9.29518648      13.46538452      13.78691851       0.00254331       0.00038145       0.00063728 
Ti       1.88851107      13.49943586      14.64385545      -0.00265532       0.00149661      -0.00120661 
Ti       7.05581483      11.53259194      14.86312843       0.00257558       0.00365803       0.00108956 
O       2.33627045      11.59691735      14.86630944      -0.00103286      -0.00007552      -0.00039396 
O       7.54595195      13.43718576      14.67257262      -0.00056473      -0.00104868      -0.00019746 
O       0.05962726      13.48961682      15.55714723       0.00043736       0.00038855      -0.00316760 
O       5.32314235      11.49071959      15.58544807       0.00104778       0.00011618       0.00184327 
O       8.95328092      11.51338878      13.92788653      -0.00036959       0.00042966       0.00078225 
O       3.78310010      13.47703359      14.11004547       0.00048305      -0.00188373      -0.00198517 
V       9.08801180      13.60286873      16.87066876      -0.00049027       0.00360951      -0.00087465 
O       8.13641864      15.02283451      16.70314740       0.00541882      -0.00219634      -0.00360212 
O       8.04448714      12.00834990      16.74969012      -0.00124568      -0.00197988       0.00023356 
O       9.78031732      13.57377169      18.29800797       0.00384408       0.00144998      -0.00182467 
V       9.08841539       5.69682512      16.87133733      -0.00356744      -0.00192137      -0.00640267 
O       8.13704959       4.27671237      16.70238268       0.00381466       0.00219794      -0.00425334 
O       3.08347897       9.66883358      16.73033130      -0.00275696       0.00294060       0.00158387 
O       8.04354932       7.29019316      16.75054788      -0.00015830       0.00407142       0.00266642 
O       9.77935112       5.72721357      18.29926338       0.00501333      -0.00268098       0.00281427 
H       8.17223019       7.95074190      17.45576458      -0.00243208       0.00150270       0.00006628 
H       3.67581694       8.88184787      16.73090644       0.00031972       0.00011774       0.00073705 
H       3.71906016      10.42208331      16.68997246      -0.00220988       0.00200842       0.00140335 
H       8.18709453      11.34096068      17.44588801      -0.00548525       0.00272825       0.00116443 
